title                                                                   
Freq      RMP2-FC                                                     Aug-CC-pVTZ         
Number of atoms                            I                3
Info1-9                                    I   N=           9
          30          15        1002           0           0         100
           6           2           1
Full Title                                 C   N=           1
title       
Route                                      C   N=           4
#p opt=(verytight) mp2/aug-cc-pvtz freq=anh     
Charge                                     I                0
Multiplicity                               I                1
Number of electrons                        I               10
Number of alpha electrons                  I                5
Number of beta electrons                   I                5
Number of basis functions                  I               92
Number of independent functions            I               92
Number of point charges in /Mol/           I                0
Number of translation vectors              I                0
Atomic numbers                             I   N=           3
           8           1           1
Nuclear charges                            R   N=           3
  8.00000000E+00  1.00000000E+00  1.00000000E+00
Current cartesian coordinates              R   N=           9
 -9.03621559E-32  1.43287718E-17  2.23425276E-01  6.05236676E-32  1.43266348E+00
 -8.93701105E-01 -1.75450675E-16 -1.43266348E+00 -8.93701105E-01
Number of symbols in /Mol/                 I                0
Force Field                                I                0
Atom Types                                 C   N=           3
                                    
Int Atom Types                             I   N=           3
           0           0           0
MM charges                                 R   N=           3
  0.00000000E+00  0.00000000E+00  0.00000000E+00
Integer atomic weights                     I   N=           3
          16           1           1
Real atomic weights                        R   N=           3
  1.59949146E+01  1.00782504E+00  1.00782504E+00
Atom fragment info                         I   N=           3
           0           0           0
Atom residue num                           I   N=           3
           0           0           0
Nuclear spins                              I   N=           3
           0           1           1
Nuclear ZEff                               R   N=           3
 -5.60000000E+00 -1.00000000E+00 -1.00000000E+00
Nuclear ZNuc                               R   N=           3
  8.00000000E+00  1.00000000E+00  1.00000000E+00
Nuclear QMom                               R   N=           3
  0.00000000E+00  0.00000000E+00  0.00000000E+00
Nuclear GFac                               R   N=           3
  0.00000000E+00  2.79284600E+00  2.79284600E+00
MicOpt                                     I   N=           3
          -1          -1          -1
Number of residues                         I                0
Number of secondary structures             I                0
Redundant internal dimensions              I   N=           4
           3           2           1           0
Redundant internal coordinate indices      I   N=          12
           1           2           0           0           1           3
           0           0           2           1           3           0
Redundant internal coordinates             R   N=           3
  1.81672673E+00  1.81672673E+00  1.81704487E+00
ZRed-IntVec                                I   N=           3
           0           0           0
ZRed-FPVec                                 R   N=           3
  0.00000000E+00  0.00000000E+00  0.00000000E+00
ZRed-Constraint1                           R   N=           3
  1.81672673E+00  1.81672673E+00  1.81704487E+00
ZRed-Constraint2                           R   N=           3
  1.80941276E+00  1.80941276E+00  1.82336723E+00
SymInf integers                            I   N=          26
           2           4           1           1           1          -1
          -1           1          -1           1           1           1
          -1           1           0           0           0           0
           0           0           0           0           0           0
           0           0
RotTr to input orientation                 R   N=          12
  1.59556330E-15 -1.00000000E+00 -2.24756787E-15 -6.12415661E-01 -2.75393112E-15
  7.90535931E-01 -7.90535931E-01  1.15095647E-16 -6.12415661E-01  1.71875290E-01
  1.39881987E-16  1.33149064E-01
Number of contracted shells                I               32
Number of primitive shells                 I               49
Pure/Cartesian d shells                    I                0
Pure/Cartesian f shells                    I                0
Highest angular momentum                   I                3
Largest degree of contraction              I                7
Shell types                                I   N=          32
           0           0           0           0           0           1
           1           1           1          -2          -2          -2
          -3          -3           0           0           0           0
           1           1           1          -2          -2           0
           0           0           0           1           1           1
          -2          -2
Number of primitives per shell             I   N=          32
           7           6           1           1           1           3
           1           1           1           1           1           1
           1           1           3           1           1           1
           1           1           1           1           1           3
           1           1           1           1           1           1
           1           1
Shell to atom map                          I   N=          32
           1           1           1           1           1           1
           1           1           1           1           1           1
           1           1           2           2           2           2
           2           2           2           2           2           3
           3           3           3           3           3           3
           3           3
Primitive exponents                        R   N=          49
  1.53300000E+04  2.29900000E+03  5.22400000E+02  1.47300000E+02  4.75500000E+01
  1.67600000E+01  6.20700000E+00  5.22400000E+02  1.47300000E+02  4.75500000E+01
  1.67600000E+01  6.20700000E+00  6.88200000E-01  1.75200000E+00  2.38400000E-01
  7.37600000E-02  3.44600000E+01  7.74900000E+00  2.28000000E+00  7.15600000E-01
  2.14000000E-01  5.97400000E-02  2.31400000E+00  6.45000000E-01  2.14000000E-01
  1.42800000E+00  5.00000000E-01  3.38700000E+01  5.09500000E+00  1.15900000E+00
  3.25800000E-01  1.02700000E-01  2.52600000E-02  1.40700000E+00  3.88000000E-01
  1.02000000E-01  1.05700000E+00  2.47000000E-01  3.38700000E+01  5.09500000E+00
  1.15900000E+00  3.25800000E-01  1.02700000E-01  2.52600000E-02  1.40700000E+00
  3.88000000E-01  1.02000000E-01  1.05700000E+00  2.47000000E-01
Contraction coefficients                   R   N=          49
  5.19808943E-04  4.02025621E-03  2.07128267E-02  8.10105536E-02  2.35962985E-01
  4.42653446E-01  3.57064423E-01 -4.42115008E-05 -1.22591041E-03 -1.05517725E-02
 -6.74452633E-02 -1.71198607E-01  1.07329856E+00  1.00000000E+00  1.00000000E+00
  1.00000000E+00  4.11634896E-02  2.57762836E-01  8.02419274E-01  1.00000000E+00
  1.00000000E+00  1.00000000E+00  1.00000000E+00  1.00000000E+00  1.00000000E+00
  1.00000000E+00  1.00000000E+00  2.54948632E-02  1.90362766E-01  8.52162022E-01
  1.00000000E+00  1.00000000E+00  1.00000000E+00  1.00000000E+00  1.00000000E+00
  1.00000000E+00  1.00000000E+00  1.00000000E+00  2.54948632E-02  1.90362766E-01
  8.52162022E-01  1.00000000E+00  1.00000000E+00  1.00000000E+00  1.00000000E+00
  1.00000000E+00  1.00000000E+00  1.00000000E+00  1.00000000E+00
Coordinates of each shell                  R   N=          96
 -5.41370828E-32  8.51497598E-18  2.23425276E-01 -5.41370828E-32  8.51497598E-18
  2.23425276E-01 -5.41370828E-32  8.51497598E-18  2.23425276E-01 -5.41370828E-32
  8.51497598E-18  2.23425276E-01 -5.41370828E-32  8.51497598E-18  2.23425276E-01
 -5.41370828E-32  8.51497598E-18  2.23425276E-01 -5.41370828E-32  8.51497598E-18
  2.23425276E-01 -5.41370828E-32  8.51497598E-18  2.23425276E-01 -5.41370828E-32
  8.51497598E-18  2.23425276E-01 -5.41370828E-32  8.51497598E-18  2.23425276E-01
 -5.41370828E-32  8.51497598E-18  2.23425276E-01 -5.41370828E-32  8.51497598E-18
  2.23425276E-01 -5.41370828E-32  8.51497598E-18  2.23425276E-01 -5.41370828E-32
  8.51497598E-18  2.23425276E-01 -7.28337238E-31  1.43266348E+00 -8.93701105E-01
 -7.28337238E-31  1.43266348E+00 -8.93701105E-01 -7.28337238E-31  1.43266348E+00
 -8.93701105E-01 -7.28337238E-31  1.43266348E+00 -8.93701105E-01 -7.28337238E-31
  1.43266348E+00 -8.93701105E-01 -7.28337238E-31  1.43266348E+00 -8.93701105E-01
 -7.28337238E-31  1.43266348E+00 -8.93701105E-01 -7.28337238E-31  1.43266348E+00
 -8.93701105E-01 -7.28337238E-31  1.43266348E+00 -8.93701105E-01 -1.75450675E-16
 -1.43266348E+00 -8.93701105E-01 -1.75450675E-16 -1.43266348E+00 -8.93701105E-01
 -1.75450675E-16 -1.43266348E+00 -8.93701105E-01 -1.75450675E-16 -1.43266348E+00
 -8.93701105E-01 -1.75450675E-16 -1.43266348E+00 -8.93701105E-01 -1.75450675E-16
 -1.43266348E+00 -8.93701105E-01 -1.75450675E-16 -1.43266348E+00 -8.93701105E-01
 -1.75450675E-16 -1.43266348E+00 -8.93701105E-01 -1.75450675E-16 -1.43266348E+00
 -8.93701105E-01
Num ILSW                                   I              100
ILSW                                       I   N=         100
           0           0           0           1           2           0
           0           0           0           0           0          -1
           5           0           0           0           2           0
           0           0           0           0           1           0
           1           0           0           0           0           0
           0           0      100000           0          -1           0
           0           0           0           0           0           0
           0           0           0           1           1           0
           0 -2000000000           1           0           0           0
           0           0           4          52           0           0
           0           0           0           0           0           0
           0           0           0           3           4           1
           0           0           0           0           0           0
           0           0           0           0           0           0
           0           0           0           0           0           0
           0           0           0           0           0           0
           0           0           0           0
Num RLSW                                   I               52
RLSW                                       R   N=          52
  1.00000000E+00  1.00000000E+00  1.00000000E+00  1.00000000E+00  1.00000000E+00
  0.00000000E+00  0.00000000E+00  1.00000000E+00  0.00000000E+00  0.00000000E+00
  0.00000000E+00  0.00000000E+00  1.00000000E+00  0.00000000E+00  0.00000000E+00
  0.00000000E+00  0.00000000E+00  1.00000000E+00  0.00000000E+00  0.00000000E+00
  0.00000000E+00  0.00000000E+00  1.00000000E+00  0.00000000E+00  0.00000000E+00
  0.00000000E+00  0.00000000E+00  1.00000000E+00  0.00000000E+00  0.00000000E+00
  0.00000000E+00  0.00000000E+00  1.00000000E+00  0.00000000E+00  0.00000000E+00
  0.00000000E+00  0.00000000E+00  0.00000000E+00  1.00000000E+00  1.00000000E+00
  0.00000000E+00  1.00000000E+00  0.00000000E+00  0.00000000E+00  0.00000000E+00
  0.00000000E+00  0.00000000E+00  0.00000000E+00  0.00000000E+00  0.00000000E+00
  0.00000000E+00  0.00000000E+00
MxBond                                     I                2
NBond                                      I   N=           3
           2           1           1
IBond                                      I   N=           6
           2           3           1           0           1           0
RBond                                      R   N=           6
  1.00000000E+00  1.00000000E+00  1.00000000E+00  0.00000000E+00  1.00000000E+00
  0.00000000E+00
Virial Ratio                               R      2.001542927087406E+00
SCF Energy                                 R     -7.606028187968731E+01
MP2 Energy                                 R     -7.632899231989100E+01
Total Energy                               R     -7.632899231989100E+01
Post-SCF wavefunction norm                 R      1.458562213306282E+00
RMS Force                                  R      3.715281944560631E-08
RMS Density                                R      5.291664889943947E-09
NImag                                      I                0
Job Status                                 I                1
Nuclear derivative order                   I                3
External E-field                           R   N=          35
  0.00000000E+00  0.00000000E+00  0.00000000E+00  0.00000000E+00  0.00000000E+00
  0.00000000E+00  0.00000000E+00  0.00000000E+00  0.00000000E+00  0.00000000E+00
  0.00000000E+00  0.00000000E+00  0.00000000E+00  0.00000000E+00  0.00000000E+00
  0.00000000E+00  0.00000000E+00  0.00000000E+00  0.00000000E+00  0.00000000E+00
  0.00000000E+00  0.00000000E+00  0.00000000E+00  0.00000000E+00  0.00000000E+00
  0.00000000E+00  0.00000000E+00  0.00000000E+00  0.00000000E+00  0.00000000E+00
  0.00000000E+00  0.00000000E+00  0.00000000E+00  0.00000000E+00  0.00000000E+00
IOpCl                                      I                0
IROHF                                      I                0
Alpha Orbital Energies                     R   N=          92
 -2.05680894E+01 -1.35181614E+00 -7.14816206E-01 -5.84929254E-01 -5.10145302E-01
  2.93636022E-02  4.76940608E-02  1.35882110E-01  1.58780474E-01  1.75136866E-01
  1.83093060E-01  2.27109896E-01  2.44924271E-01  2.65393951E-01  3.00008609E-01
  3.10124938E-01  3.65783320E-01  4.37197898E-01  4.66128641E-01  5.99179507E-01
  6.58492507E-01  7.07956515E-01  7.22670637E-01  7.31666769E-01  8.30476988E-01
  8.46327280E-01  8.92138235E-01  9.12436102E-01  9.18234027E-01  9.22358100E-01
  9.30809999E-01  9.61373192E-01  1.02043518E+00  1.04361792E+00  1.08245317E+00
  1.10840629E+00  1.17613315E+00  1.18169464E+00  1.26116279E+00  1.50987478E+00
  1.53505304E+00  1.58271027E+00  1.80503892E+00  1.82041220E+00  1.98283284E+00
  2.11791161E+00  2.26254636E+00  2.31569040E+00  2.32657739E+00  2.41811580E+00
  2.42049514E+00  2.44193296E+00  2.48106811E+00  2.67771258E+00  2.69799309E+00
  2.77042005E+00  2.81566357E+00  2.88360581E+00  3.65089221E+00  3.74154267E+00
  4.01733308E+00  4.08267976E+00  4.16274229E+00  4.24730685E+00  4.28688373E+00
  4.37394113E+00  4.37697681E+00  4.40445367E+00  4.51693288E+00  4.72370459E+00
  4.84148309E+00  5.14610653E+00  5.14615011E+00  5.24815907E+00  5.32479248E+00
  5.52122614E+00  5.66182026E+00  6.17704768E+00  6.51342937E+00  6.70887659E+00
  6.89698911E+00  7.12989999E+00  7.24865433E+00  7.29727644E+00  7.31418919E+00
  7.32928657E+00  7.35474539E+00  7.53121256E+00  7.89133821E+00  7.92628628E+00
  8.79762902E+00  1.57076574E+01
Alpha MO coefficients                      R   N=        8464
  9.76709213E-01 -8.99049604E-03  4.36004047E-02  8.49350409E-04  2.76695904E-04
  0.00000000E+00  0.00000000E+00 -1.87024932E-03  0.00000000E+00  0.00000000E+00
  1.58664244E-03  0.00000000E+00  0.00000000E+00 -2.67949285E-04  0.00000000E+00
  0.00000000E+00 -1.68695762E-04  1.06553303E-05  0.00000000E+00  0.00000000E+00
 -6.65664542E-05  0.00000000E+00 -8.20975094E-05  0.00000000E+00  0.00000000E+00
  5.32560301E-04  0.00000000E+00  8.33658243E-05  0.00000000E+00  0.00000000E+00
 -1.21868597E-04  0.00000000E+00  2.12129688E-05  0.00000000E+00  0.00000000E+00
  4.76284899E-06  0.00000000E+00  0.00000000E+00  0.00000000E+00 -8.66422220E-05
  0.00000000E+00  0.00000000E+00 -1.61309038E-04  0.00000000E+00  0.00000000E+00
  0.00000000E+00  4.99610704E-04  9.67566157E-04 -2.23956013E-04  2.49019143E-05
  0.00000000E+00 -1.59614327E-04  1.01248682E-04  0.00000000E+00 -6.62750748E-04
  6.01455233E-04  0.00000000E+00 -1.08617514E-04  7.74926424E-05 -3.78619571E-05
  0.00000000E+00  1.18865324E-04  4.68435781E-05  0.00000000E+00  5.05906102E-05
  0.00000000E+00 -3.98918008E-04 -2.34612902E-04  0.00000000E+00  4.99610704E-04
  9.67566157E-04 -2.23956013E-04  2.49019143E-05  0.00000000E+00  1.59614327E-04
  1.01248682E-04  0.00000000E+00  6.62750748E-04  6.01455233E-04  0.00000000E+00
  1.08617514E-04  7.74926424E-05 -3.78619571E-05  0.00000000E+00 -1.18865324E-04
  4.68435781E-05  0.00000000E+00  5.05906102E-05  0.00000000E+00  3.98918008E-04
 -2.34612902E-04  0.00000000E+00 -2.01387911E-01  4.87587847E-01  1.32772472E-01
  2.94356548E-01  3.48361762E-02  0.00000000E+00  0.00000000E+00 -4.43284968E-02
  0.00000000E+00  0.00000000E+00 -6.31366878E-02  0.00000000E+00  0.00000000E+00
 -1.73889084E-02  0.00000000E+00  0.00000000E+00 -2.81878833E-03  9.43209864E-04
  0.00000000E+00  0.00000000E+00 -3.60540306E-03  0.00000000E+00  3.57183449E-03
  0.00000000E+00  0.00000000E+00 -8.36653591E-03  0.00000000E+00  7.89887122E-04
  0.00000000E+00  0.00000000E+00  3.11280954E-03  0.00000000E+00  9.19534999E-04
  0.00000000E+00  0.00000000E+00  2.65834345E-03  0.00000000E+00  0.00000000E+00
  0.00000000E+00 -5.39662999E-04  0.00000000E+00  0.00000000E+00  4.64805820E-04
  0.00000000E+00  0.00000000E+00  0.00000000E+00  8.81054700E-02  7.42503278E-02
 -1.48068719E-02 -1.37909801E-03  0.00000000E+00 -1.05948615E-02  7.46473701E-03
  0.00000000E+00 -7.85739072E-03  5.50960093E-03  0.00000000E+00  5.09843732E-03
 -4.29777831E-03  9.16107277E-05  0.00000000E+00 -2.10457749E-03 -1.29328148E-03
  0.00000000E+00 -1.87944714E-05  0.00000000E+00  8.54204896E-04  4.69983445E-04
  0.00000000E+00  8.81054700E-02  7.42503278E-02 -1.48068719E-02 -1.37909801E-03
  0.00000000E+00  1.05948615E-02  7.46473701E-03  0.00000000E+00  7.85739072E-03
  5.50960093E-03  0.00000000E+00 -5.09843732E-03 -4.29777831E-03  9.16107277E-05
  0.00000000E+00  2.10457749E-03 -1.29328148E-03  0.00000000E+00 -1.87944714E-05
  0.00000000E+00 -8.54204896E-04  4.69983445E-04  0.00000000E+00  0.00000000E+00
  0.00000000E+00  0.00000000E+00  0.00000000E+00  0.00000000E+00  0.00000000E+00
  2.84134791E-01  0.00000000E+00  0.00000000E+00  3.39423506E-01  0.00000000E+00
  0.00000000E+00  1.57791052E-01  0.00000000E+00  0.00000000E+00  8.34225102E-03
  0.00000000E+00  0.00000000E+00  0.00000000E+00 -1.27162294E-02  0.00000000E+00
  0.00000000E+00  0.00000000E+00  0.00000000E+00 -2.32444999E-02  0.00000000E+00
  0.00000000E+00  0.00000000E+00  0.00000000E+00 -4.12899341E-04  0.00000000E+00
  0.00000000E+00  0.00000000E+00  0.00000000E+00 -1.28859226E-04  0.00000000E+00
  0.00000000E+00  0.00000000E+00 -2.74585603E-03  0.00000000E+00  0.00000000E+00
  2.35386250E-03  0.00000000E+00  0.00000000E+00  0.00000000E+00 -1.78114738E-03
  1.39804874E-01  2.22346718E-01  3.64482533E-02 -4.73782053E-03  0.00000000E+00
 -9.36642263E-03  1.26654459E-02  0.00000000E+00 -1.93663960E-02  2.81427468E-02
  0.00000000E+00  8.19922023E-03  2.10389464E-04  2.11955500E-03  0.00000000E+00
 -6.23169260E-03 -3.13699493E-03  0.00000000E+00  2.27483725E-03  0.00000000E+00
 -2.68218221E-03  9.87424184E-04  0.00000000E+00 -1.39804874E-01 -2.22346718E-01
 -3.64482533E-02  4.73782053E-03  0.00000000E+00 -9.36642263E-03 -1.26654459E-02
  0.00000000E+00 -1.93663960E-02 -2.81427468E-02  0.00000000E+00  8.19922023E-03
 -2.10389464E-04 -2.11955500E-03  0.00000000E+00 -6.23169260E-03  3.13699493E-03
  0.00000000E+00 -2.27483725E-03  0.00000000E+00 -2.68218221E-03 -9.87424184E-04
  0.00000000E+00 -6.48141543E-02  1.75812460E-01  5.23925854E-02  3.28324134E-01
  8.31041858E-02  0.00000000E+00  0.00000000E+00  3.11886191E-01  0.00000000E+00
  0.00000000E+00  3.82613285E-01  0.00000000E+00  0.00000000E+00  2.13755851E-01
  0.00000000E+00  0.00000000E+00  1.34536072E-02 -5.87885036E-03  0.00000000E+00
  0.00000000E+00  3.61999594E-03  0.00000000E+00 -1.60469315E-02  0.00000000E+00
  0.00000000E+00  1.18915513E-03  0.00000000E+00 -4.16887277E-03  0.00000000E+00
  0.00000000E+00 -9.23058630E-03  0.00000000E+00  6.24510062E-04  0.00000000E+00
  0.00000000E+00 -2.76826438E-03  0.00000000E+00  0.00000000E+00  0.00000000E+00
  1.60557361E-03  0.00000000E+00  0.00000000E+00  4.26811771E-04  0.00000000E+00
  0.00000000E+00  0.00000000E+00 -8.54742714E-02 -1.78129082E-01 -6.46113608E-02
 -1.85477433E-03  0.00000000E+00  9.60216716E-03  1.40145825E-03  0.00000000E+00
  3.25523380E-02 -1.45223151E-03  0.00000000E+00  4.70922543E-03  8.35613719E-03
  1.99958871E-03  0.00000000E+00  1.93006770E-03  3.22048990E-03  0.00000000E+00
  1.79411301E-03  0.00000000E+00 -1.99004660E-03  2.29399011E-03  0.00000000E+00
 -8.54742714E-02 -1.78129082E-01 -6.46113608E-02 -1.85477433E-03  0.00000000E+00
 -9.60216716E-03  1.40145825E-03  0.00000000E+00 -3.25523380E-02 -1.45223151E-03
  0.00000000E+00 -4.70922543E-03  8.35613719E-03  1.99958871E-03  0.00000000E+00
 -1.93006770E-03  3.22048990E-03  0.00000000E+00  1.79411301E-03  0.00000000E+00
  1.99004660E-03  2.29399011E-03  0.00000000E+00  0.00000000E+00  0.00000000E+00
  0.00000000E+00  0.00000000E+00  0.00000000E+00  3.54134769E-01  0.00000000E+00
  0.00000000E+00  4.50207175E-01  0.00000000E+00  0.00000000E+00  3.25856736E-01
  0.00000000E+00  0.00000000E+00  3.33217682E-02  0.00000000E+00  0.00000000E+00
  0.00000000E+00 -5.77307312E-03  0.00000000E+00  0.00000000E+00  0.00000000E+00
  0.00000000E+00 -1.42519240E-02  0.00000000E+00  0.00000000E+00  0.00000000E+00
  0.00000000E+00 -5.41439491E-03  0.00000000E+00  0.00000000E+00  0.00000000E+00
  0.00000000E+00  1.35903482E-03  0.00000000E+00  0.00000000E+00  0.00000000E+00
 -3.53224155E-03  0.00000000E+00  0.00000000E+00  8.51819645E-04  0.00000000E+00
  0.00000000E+00  0.00000000E+00 -1.29206754E-03  0.00000000E+00  0.00000000E+00
  0.00000000E+00  0.00000000E+00  0.00000000E+00  1.06073717E-02  0.00000000E+00
  0.00000000E+00  2.99238791E-02  0.00000000E+00  0.00000000E+00  1.84336671E-02
  0.00000000E+00  0.00000000E+00  0.00000000E+00  2.90851915E-03  0.00000000E+00
  0.00000000E+00 -3.78416589E-03  0.00000000E+00  4.28158353E-03  0.00000000E+00
  0.00000000E+00 -6.07341704E-03  0.00000000E+00  0.00000000E+00  0.00000000E+00
  0.00000000E+00  1.06073717E-02  0.00000000E+00  0.00000000E+00  2.99238791E-02
  0.00000000E+00  0.00000000E+00  1.84336671E-02  0.00000000E+00  0.00000000E+00
  0.00000000E+00  2.90851915E-03  0.00000000E+00  0.00000000E+00  3.78416589E-03
  0.00000000E+00  4.28158353E-03  0.00000000E+00  0.00000000E+00  6.07341704E-03
 -2.28813110E-02  5.66477911E-02  1.25045032E-02  8.01386032E-01  2.38525736E+00
  0.00000000E+00  0.00000000E+00 -2.90645313E-02  0.00000000E+00  0.00000000E+00
 -7.23075236E-02  0.00000000E+00  0.00000000E+00 -3.49380557E-01  0.00000000E+00
  0.00000000E+00 -2.22102844E-01 -1.57837423E-05  0.00000000E+00  0.00000000E+00
  9.69996720E-04  0.00000000E+00  6.74768683E-03  0.00000000E+00  0.00000000E+00
 -2.30815087E-02  0.00000000E+00 -1.37287159E-03  0.00000000E+00  0.00000000E+00
 -5.53883974E-02  0.00000000E+00  6.79052151E-04  0.00000000E+00  0.00000000E+00
  1.34636132E-03  0.00000000E+00  0.00000000E+00  0.00000000E+00  4.58949376E-03
  0.00000000E+00  0.00000000E+00  1.12037706E-02  0.00000000E+00  0.00000000E+00
  0.00000000E+00 -1.81120086E-03 -2.42761202E-01 -9.52070328E-01 -8.56844926E-01
  0.00000000E+00 -2.03614080E-03  3.50996990E-04  0.00000000E+00  7.92281728E-02
 -6.04130343E-02  0.00000000E+00  2.18559046E-01 -1.98210805E-01 -1.07874025E-03
  0.00000000E+00  4.86338235E-03  2.34334345E-03  0.00000000E+00 -3.03347474E-03
  0.00000000E+00  2.74551386E-02  2.00723996E-02  0.00000000E+00 -1.81120086E-03
 -2.42761202E-01 -9.52070328E-01 -8.56844926E-01  0.00000000E+00  2.03614080E-03
  3.50996990E-04  0.00000000E+00 -7.92281728E-02 -6.04130343E-02  0.00000000E+00
 -2.18559046E-01 -1.98210805E-01 -1.07874025E-03  0.00000000E+00 -4.86338235E-03
  2.34334345E-03  0.00000000E+00 -3.03347474E-03  0.00000000E+00 -2.74551386E-02
  2.00723996E-02  0.00000000E+00  0.00000000E+00  0.00000000E+00  0.00000000E+00
  0.00000000E+00  0.00000000E+00  0.00000000E+00 -2.90683320E-02  0.00000000E+00
  0.00000000E+00 -7.41067725E-02  0.00000000E+00  0.00000000E+00 -5.35181282E-01
  0.00000000E+00  0.00000000E+00 -1.13212897E+00  0.00000000E+00  0.00000000E+00
  0.00000000E+00 -4.29500221E-05  0.00000000E+00  0.00000000E+00  0.00000000E+00
  0.00000000E+00  3.00662999E-02  0.00000000E+00  0.00000000E+00  0.00000000E+00
  0.00000000E+00  1.27384099E-01  0.00000000E+00  0.00000000E+00  0.00000000E+00
  0.00000000E+00 -8.83468109E-04  0.00000000E+00  0.00000000E+00  0.00000000E+00
  2.20505801E-04  0.00000000E+00  0.00000000E+00 -4.12336223E-03  0.00000000E+00
  0.00000000E+00  0.00000000E+00  9.19490813E-03 -6.36481193E-03  2.56163561E-01
  1.37217559E+00  3.41974511E+00  0.00000000E+00 -5.49422315E-04 -1.25497232E-03
  0.00000000E+00 -6.60752588E-02  7.03808505E-02  0.00000000E+00 -2.79041726E-01
  3.23749971E-01 -5.30625523E-05  0.00000000E+00 -4.53662740E-03 -3.57442255E-03
  0.00000000E+00  1.50644315E-02  0.00000000E+00 -3.26799633E-02 -3.10301891E-03
  0.00000000E+00  6.36481193E-03 -2.56163561E-01 -1.37217559E+00 -3.41974511E+00
  0.00000000E+00 -5.49422315E-04  1.25497232E-03  0.00000000E+00 -6.60752588E-02
 -7.03808505E-02  0.00000000E+00 -2.79041726E-01 -3.23749971E-01  5.30625523E-05
  0.00000000E+00 -4.53662740E-03  3.57442255E-03  0.00000000E+00 -1.50644315E-02
  0.00000000E+00 -3.26799633E-02  3.10301891E-03  0.00000000E+00  1.43861836E-02
 -5.82558626E-02 -1.89143974E-02  1.57677857E+00  6.72376068E+00  0.00000000E+00
  0.00000000E+00  9.04565916E-02  0.00000000E+00  0.00000000E+00  3.55753509E-02
  0.00000000E+00  0.00000000E+00 -4.21882782E-01  0.00000000E+00  0.00000000E+00
 -2.05729893E+00 -1.74146882E-04  0.00000000E+00  0.00000000E+00 -7.58397738E-04
  0.00000000E+00 -8.17794485E-03  0.00000000E+00  0.00000000E+00 -1.90995720E-02
  0.00000000E+00  8.63862290E-02  0.00000000E+00  0.00000000E+00 -5.98860686E-02
  0.00000000E+00  1.96314852E-03  0.00000000E+00  0.00000000E+00  2.49245450E-03
  0.00000000E+00  0.00000000E+00  0.00000000E+00 -4.41878207E-03  0.00000000E+00
  0.00000000E+00 -4.25034364E-03  0.00000000E+00  0.00000000E+00  0.00000000E+00
  1.02847131E-03 -2.44976038E-01 -3.22669881E+00 -7.34558796E-01  0.00000000E+00
  5.56711467E-04 -1.04301072E-04  0.00000000E+00  2.10212020E-01 -1.35105370E-01
  0.00000000E+00  7.72154734E-01 -4.69514237E-01 -1.69718864E-03  0.00000000E+00
  1.04430510E-02  8.37376267E-03  0.00000000E+00  1.57233908E-02  0.00000000E+00
  8.58193008E-02  5.86973911E-02  0.00000000E+00  1.02847131E-03 -2.44976038E-01
 -3.22669881E+00 -7.34558796E-01  0.00000000E+00 -5.56711467E-04 -1.04301072E-04
  0.00000000E+00 -2.10212020E-01 -1.35105370E-01  0.00000000E+00 -7.72154734E-01
 -4.69514237E-01 -1.69718864E-03  0.00000000E+00 -1.04430510E-02  8.37376267E-03
  0.00000000E+00  1.57233908E-02  0.00000000E+00 -8.58193008E-02  5.86973911E-02
  0.00000000E+00  0.00000000E+00  0.00000000E+00  0.00000000E+00  0.00000000E+00
  0.00000000E+00 -8.76143816E-02  0.00000000E+00  0.00000000E+00 -8.04870327E-02
  0.00000000E+00  0.00000000E+00  4.15694493E-02  0.00000000E+00  0.00000000E+00
  1.82298693E+00  0.00000000E+00  0.00000000E+00  0.00000000E+00 -1.90700769E-03
  0.00000000E+00  0.00000000E+00  0.00000000E+00  0.00000000E+00  2.82929994E-02
  0.00000000E+00  0.00000000E+00  0.00000000E+00  0.00000000E+00 -2.05088813E-01
  0.00000000E+00  0.00000000E+00  0.00000000E+00  0.00000000E+00 -2.30761526E-03
  0.00000000E+00  0.00000000E+00  0.00000000E+00  4.04646171E-03  0.00000000E+00
  0.00000000E+00  8.18674103E-03  0.00000000E+00  0.00000000E+00  0.00000000E+00
 -1.11118602E-02  0.00000000E+00  0.00000000E+00  0.00000000E+00  0.00000000E+00
  0.00000000E+00  4.76147755E-04  0.00000000E+00  0.00000000E+00 -3.93985674E-02
  0.00000000E+00  0.00000000E+00 -5.64710958E-01  0.00000000E+00  0.00000000E+00
  0.00000000E+00  2.43901290E-03  0.00000000E+00  0.00000000E+00 -2.02696540E-03
  0.00000000E+00 -4.32091062E-02  0.00000000E+00  0.00000000E+00  6.85812581E-02
  0.00000000E+00  0.00000000E+00  0.00000000E+00  0.00000000E+00  4.76147755E-04
  0.00000000E+00  0.00000000E+00 -3.93985674E-02  0.00000000E+00  0.00000000E+00
 -5.64710958E-01  0.00000000E+00  0.00000000E+00  0.00000000E+00  2.43901290E-03
  0.00000000E+00  0.00000000E+00  2.02696540E-03  0.00000000E+00 -4.32091062E-02
  0.00000000E+00  0.00000000E+00 -6.85812581E-02  4.98344695E-02 -1.37374438E-01
 -5.61717547E-02  1.63963946E+00  4.00693367E+00  0.00000000E+00  0.00000000E+00
  1.80094065E-02  0.00000000E+00  0.00000000E+00 -5.96046883E-02  0.00000000E+00
  0.00000000E+00 -5.64545343E-01  0.00000000E+00  0.00000000E+00  9.23142195E-01
 -2.22327889E-03  0.00000000E+00  0.00000000E+00  2.59754431E-03  0.00000000E+00
  1.70923479E-02  0.00000000E+00  0.00000000E+00 -7.26261042E-02  0.00000000E+00
 -1.21811800E-01  0.00000000E+00  0.00000000E+00 -9.86694538E-02  0.00000000E+00
  1.35040266E-03  0.00000000E+00  0.00000000E+00  3.94569480E-03  0.00000000E+00
  0.00000000E+00  0.00000000E+00  1.99961639E-02  0.00000000E+00  0.00000000E+00
  2.53692577E-02  0.00000000E+00  0.00000000E+00  0.00000000E+00  3.03805943E-02
 -4.97358504E-01 -1.19126767E+00 -6.97070910E-01  0.00000000E+00  1.23601949E-02
 -7.79619241E-03  0.00000000E+00  1.87873112E-01 -1.84670884E-01  0.00000000E+00
  7.83895984E-01 -8.97675230E-01 -2.59058952E-03  0.00000000E+00  1.41963924E-02