title                                                                   
Freq      RMP2-FC                                                     Aug-CC-pVTZ         
Number of atoms                            I                6
Info1-9                                    I   N=           9
          31          25        1002           0           0         100
           6           2           1
Full Title                                 C   N=           1
title       
Route                                      C   N=           4
#p opt=(verytight) mp2/aug-cc-pvtz freq=anh     
Charge                                     I                0
Multiplicity                               I                1
Number of electrons                        I               20
Number of alpha electrons                  I               10
Number of beta electrons                   I               10
Number of basis functions                  I              184
Number of independent functions            I              184
Number of point charges in /Mol/           I                0
Number of translation vectors              I                0
Atomic numbers                             I   N=           6
           8           1           1           8           1           1
Nuclear charges                            R   N=           6
  8.00000000E+00  1.00000000E+00  1.00000000E+00  8.00000000E+00  1.00000000E+00
  1.00000000E+00
Current cartesian coordinates              R   N=          18
 -1.18288838E-03  2.86814895E+00 -6.67940709E-29  1.70397884E+00  3.48970674E+00
 -9.90307000E-29  1.75697699E-01  1.04636662E+00 -2.63450442E-29 -1.18288838E-03
 -2.62564656E+00  5.49618811E-29 -9.30375162E-01 -3.23804624E+00  1.43812876E+00
 -9.30375162E-01 -3.23804624E+00 -1.43812876E+00
Number of symbols in /Mol/                 I                0
Force Field                                I                0
Atom Types                                 C   N=           6
                                                            
            
Int Atom Types                             I   N=           6
           0           0           0           0           0           0
MM charges                                 R   N=           6
  0.00000000E+00  0.00000000E+00  0.00000000E+00  0.00000000E+00  0.00000000E+00
  0.00000000E+00
Integer atomic weights                     I   N=           6
          16           1           1          16           1           1
Real atomic weights                        R   N=           6
  1.59949146E+01  1.00782504E+00  1.00782504E+00  1.59949146E+01  1.00782504E+00
  1.00782504E+00
Atom fragment info                         I   N=           6
           0           0           0           0           0           0
Atom residue num                           I   N=           6
           0           0           0           0           0           0
Nuclear spins                              I   N=           6
           0           1           1           0           1           1
Nuclear ZEff                               R   N=           6
 -5.60000000E+00 -1.00000000E+00 -1.00000000E+00 -5.60000000E+00 -1.00000000E+00
 -1.00000000E+00
Nuclear ZNuc                               R   N=           6
  8.00000000E+00  1.00000000E+00  1.00000000E+00  8.00000000E+00  1.00000000E+00
  1.00000000E+00
Nuclear QMom                               R   N=           6
  0.00000000E+00  0.00000000E+00  0.00000000E+00  0.00000000E+00  0.00000000E+00
  0.00000000E+00
Nuclear GFac                               R   N=           6
  0.00000000E+00  2.79284600E+00  2.79284600E+00  0.00000000E+00  2.79284600E+00
  2.79284600E+00
MicOpt                                     I   N=           6
          -1          -1          -1          -1          -1          -1
Number of residues                         I                0
Number of secondary structures             I                0
Redundant internal dimensions              I   N=           4
          14           5           6           3
Redundant internal coordinate indices      I   N=          56
           1           2           0           0           1           3
           0           0           3           4           0           0
           4           5           0           0           4           6
           0           0           2           1           3           0
           3           4           5           0           3           4
           6           0           5           4           6           0
           1           3           4         -21           1           3
           4         -22           2           1           4           5
           2           1           4           6           3           4
           5           6
Redundant internal coordinates             R   N=          14
  1.81491339E+00  1.83034904E+00  3.67627087E+00  1.81841854E+00  1.81841854E+00
  1.82355486E+00  1.94010601E+00  1.94010601E+00  1.82445157E+00  3.28651405E+00
  3.14159265E+00  2.14443349E+00 -2.14443349E+00  2.09463495E+00
ZRed-IntVec                                I   N=          14
           0           0           0           0           0           0
           0           0           0           0           0           0
           0           0
ZRed-FPVec                                 R   N=          14
  0.00000000E+00  0.00000000E+00  0.00000000E+00  0.00000000E+00  0.00000000E+00
  0.00000000E+00  0.00000000E+00  0.00000000E+00  0.00000000E+00  0.00000000E+00
  0.00000000E+00  0.00000000E+00  0.00000000E+00  0.00000000E+00
ZRed-Constraint1                           R   N=          14
  1.81491339E+00  1.83034904E+00  3.67627087E+00  1.81841854E+00  1.81841854E+00
  1.82355486E+00  1.94010601E+00  1.94010601E+00  1.82445157E+00  3.28651405E+00
  3.14159265E+00  2.14443349E+00 -2.14443349E+00  2.09463495E+00
ZRed-Constraint2                           R   N=          14
  1.81489297E+00  1.83038872E+00  3.67643854E+00  1.81848345E+00  1.81848345E+00
  1.82355491E+00  1.94012492E+00  1.94012492E+00  1.82444919E+00  3.28652379E+00
  3.14159265E+00  2.14442497E+00 -2.14442497E+00  2.09466597E+00
SymInf integers                            I   N=          26
           2           2           1           1           1           1
           1          -1           0           0           0           0
           0           0           0           0           0           0
           0           0           0           0           0           0
           0           0
RotTr to input orientation                 R   N=          12
  3.42471219E-01 -2.10250802E-14  9.39528320E-01 -9.39528320E-01  2.68044443E-15
  3.42471219E-01 -9.71883830E-15 -1.00000000E+00 -1.88356832E-14  2.69521860E+00
 -3.33066907E-17 -9.81221252E-01
Number of contracted shells                I               64
Number of primitive shells                 I               98
Pure/Cartesian d shells                    I                0
Pure/Cartesian f shells                    I                0
Highest angular momentum                   I                3
Largest degree of contraction              I                7
Shell types                                I   N=          64
           0           0           0           0           0           1
           1           1           1          -2          -2          -2
          -3          -3           0           0           0           0
           1           1           1          -2          -2           0
           0           0           0           1           1           1
          -2          -2           0           0           0           0
           0           1           1           1           1          -2
          -2          -2          -3          -3           0           0
           0           0           1           1           1          -2
          -2           0           0           0           0           1
           1           1          -2          -2
Number of primitives per shell             I   N=          64
           7           6           1           1           1           3
           1           1           1           1           1           1
           1           1           3           1           1           1
           1           1           1           1           1           3
           1           1           1           1           1           1
           1           1           7           6           1           1
           1           3           1           1           1           1
           1           1           1           1           3           1
           1           1           1           1           1           1
           1           3           1           1           1           1
           1           1           1           1
Shell to atom map                          I   N=          64
           1           1           1           1           1           1
           1           1           1           1           1           1
           1           1           2           2           2           2
           2           2           2           2           2           3
           3           3           3           3           3           3
           3           3           4           4           4           4
           4           4           4           4           4           4
           4           4           4           4           5           5
           5           5           5           5           5           5
           5           6           6           6           6           6
           6           6           6           6
Primitive exponents                        R   N=          98
  1.53300000E+04  2.29900000E+03  5.22400000E+02  1.47300000E+02  4.75500000E+01
  1.67600000E+01  6.20700000E+00  5.22400000E+02  1.47300000E+02  4.75500000E+01
  1.67600000E+01  6.20700000E+00  6.88200000E-01  1.75200000E+00  2.38400000E-01
  7.37600000E-02  3.44600000E+01  7.74900000E+00  2.28000000E+00  7.15600000E-01
  2.14000000E-01  5.97400000E-02  2.31400000E+00  6.45000000E-01  2.14000000E-01
  1.42800000E+00  5.00000000E-01  3.38700000E+01  5.09500000E+00  1.15900000E+00
  3.25800000E-01  1.02700000E-01  2.52600000E-02  1.40700000E+00  3.88000000E-01
  1.02000000E-01  1.05700000E+00  2.47000000E-01  3.38700000E+01  5.09500000E+00
  1.15900000E+00  3.25800000E-01  1.02700000E-01  2.52600000E-02  1.40700000E+00
  3.88000000E-01  1.02000000E-01  1.05700000E+00  2.47000000E-01  1.53300000E+04
  2.29900000E+03  5.22400000E+02  1.47300000E+02  4.75500000E+01  1.67600000E+01
  6.20700000E+00  5.22400000E+02  1.47300000E+02  4.75500000E+01  1.67600000E+01
  6.20700000E+00  6.88200000E-01  1.75200000E+00  2.38400000E-01  7.37600000E-02
  3.44600000E+01  7.74900000E+00  2.28000000E+00  7.15600000E-01  2.14000000E-01
  5.97400000E-02  2.31400000E+00  6.45000000E-01  2.14000000E-01  1.42800000E+00
  5.00000000E-01  3.38700000E+01  5.09500000E+00  1.15900000E+00  3.25800000E-01
  1.02700000E-01  2.52600000E-02  1.40700000E+00  3.88000000E-01  1.02000000E-01
  1.05700000E+00  2.47000000E-01  3.38700000E+01  5.09500000E+00  1.15900000E+00
  3.25800000E-01  1.02700000E-01  2.52600000E-02  1.40700000E+00  3.88000000E-01
  1.02000000E-01  1.05700000E+00  2.47000000E-01
Contraction coefficients                   R   N=          98
  5.19808943E-04  4.02025621E-03  2.07128267E-02  8.10105536E-02  2.35962985E-01
  4.42653446E-01  3.57064423E-01 -4.42115008E-05 -1.22591041E-03 -1.05517725E-02
 -6.74452633E-02 -1.71198607E-01  1.07329856E+00  1.00000000E+00  1.00000000E+00
  1.00000000E+00  4.11634896E-02  2.57762836E-01  8.02419274E-01  1.00000000E+00
  1.00000000E+00  1.00000000E+00  1.00000000E+00  1.00000000E+00  1.00000000E+00
  1.00000000E+00  1.00000000E+00  2.54948632E-02  1.90362766E-01  8.52162022E-01
  1.00000000E+00  1.00000000E+00  1.00000000E+00  1.00000000E+00  1.00000000E+00
  1.00000000E+00  1.00000000E+00  1.00000000E+00  2.54948632E-02  1.90362766E-01
  8.52162022E-01  1.00000000E+00  1.00000000E+00  1.00000000E+00  1.00000000E+00
  1.00000000E+00  1.00000000E+00  1.00000000E+00  1.00000000E+00  5.19808943E-04
  4.02025621E-03  2.07128267E-02  8.10105536E-02  2.35962985E-01  4.42653446E-01
  3.57064423E-01 -4.42115008E-05 -1.22591041E-03 -1.05517725E-02 -6.74452633E-02
 -1.71198607E-01  1.07329856E+00  1.00000000E+00  1.00000000E+00  1.00000000E+00
  4.11634896E-02  2.57762836E-01  8.02419274E-01  1.00000000E+00  1.00000000E+00
  1.00000000E+00  1.00000000E+00  1.00000000E+00  1.00000000E+00  1.00000000E+00
  1.00000000E+00  2.54948632E-02  1.90362766E-01  8.52162022E-01  1.00000000E+00
  1.00000000E+00  1.00000000E+00  1.00000000E+00  1.00000000E+00  1.00000000E+00
  1.00000000E+00  1.00000000E+00  2.54948632E-02  1.90362766E-01  8.52162022E-01
  1.00000000E+00  1.00000000E+00  1.00000000E+00  1.00000000E+00  1.00000000E+00
  1.00000000E+00  1.00000000E+00  1.00000000E+00
Coordinates of each shell                  R   N=         192
 -1.18288838E-03  2.86814895E+00 -4.57702283E-29 -1.18288838E-03  2.86814895E+00
 -4.57702283E-29 -1.18288838E-03  2.86814895E+00 -4.57702283E-29 -1.18288838E-03
  2.86814895E+00 -4.57702283E-29 -1.18288838E-03  2.86814895E+00 -4.57702283E-29
 -1.18288838E-03  2.86814895E+00 -4.57702283E-29 -1.18288838E-03  2.86814895E+00
 -4.57702283E-29 -1.18288838E-03  2.86814895E+00 -4.57702283E-29 -1.18288838E-03
  2.86814895E+00 -4.57702283E-29 -1.18288838E-03  2.86814895E+00 -4.57702283E-29
 -1.18288838E-03  2.86814895E+00 -4.57702283E-29 -1.18288838E-03  2.86814895E+00
 -4.57702283E-29 -1.18288838E-03  2.86814895E+00 -4.57702283E-29 -1.18288838E-03
  2.86814895E+00 -4.57702283E-29  1.70397884E+00  3.48970674E+00 -6.54224274E-29
  1.70397884E+00  3.48970674E+00 -6.54224274E-29  1.70397884E+00  3.48970674E+00
 -6.54224274E-29  1.70397884E+00  3.48970674E+00 -6.54224274E-29  1.70397884E+00
  3.48970674E+00 -6.54224274E-29  1.70397884E+00  3.48970674E+00 -6.54224274E-29
  1.70397884E+00  3.48970674E+00 -6.54224274E-29  1.70397884E+00  3.48970674E+00
 -6.54224274E-29  1.70397884E+00  3.48970674E+00 -6.54224274E-29  1.75697699E-01
  1.04636662E+00 -1.63652542E-29  1.75697699E-01  1.04636662E+00 -1.63652542E-29
  1.75697699E-01  1.04636662E+00 -1.63652542E-29  1.75697699E-01  1.04636662E+00
 -1.63652542E-29  1.75697699E-01  1.04636662E+00 -1.63652542E-29  1.75697699E-01
  1.04636662E+00 -1.63652542E-29  1.75697699E-01  1.04636662E+00 -1.63652542E-29
  1.75697699E-01  1.04636662E+00 -1.63652542E-29  1.75697699E-01  1.04636662E+00
 -1.63652542E-29 -1.18288838E-03 -2.62564656E+00  4.23401066E-29 -1.18288838E-03
 -2.62564656E+00  4.23401066E-29 -1.18288838E-03 -2.62564656E+00  4.23401066E-29
 -1.18288838E-03 -2.62564656E+00  4.23401066E-29 -1.18288838E-03 -2.62564656E+00
  4.23401066E-29 -1.18288838E-03 -2.62564656E+00  4.23401066E-29 -1.18288838E-03
 -2.62564656E+00  4.23401066E-29 -1.18288838E-03 -2.62564656E+00  4.23401066E-29
 -1.18288838E-03 -2.62564656E+00  4.23401066E-29 -1.18288838E-03 -2.62564656E+00
  4.23401066E-29 -1.18288838E-03 -2.62564656E+00  4.23401066E-29 -1.18288838E-03
 -2.62564656E+00  4.23401066E-29 -1.18288838E-03 -2.62564656E+00  4.23401066E-29
 -1.18288838E-03 -2.62564656E+00  4.23401066E-29 -9.30375162E-01 -3.23804624E+00
  1.43812876E+00 -9.30375162E-01 -3.23804624E+00  1.43812876E+00 -9.30375162E-01
 -3.23804624E+00  1.43812876E+00 -9.30375162E-01 -3.23804624E+00  1.43812876E+00
 -9.30375162E-01 -3.23804624E+00  1.43812876E+00 -9.30375162E-01 -3.23804624E+00
  1.43812876E+00 -9.30375162E-01 -3.23804624E+00  1.43812876E+00 -9.30375162E-01
 -3.23804624E+00  1.43812876E+00 -9.30375162E-01 -3.23804624E+00  1.43812876E+00
 -9.30375162E-01 -3.23804624E+00 -1.43812876E+00 -9.30375162E-01 -3.23804624E+00
 -1.43812876E+00 -9.30375162E-01 -3.23804624E+00 -1.43812876E+00 -9.30375162E-01
 -3.23804624E+00 -1.43812876E+00 -9.30375162E-01 -3.23804624E+00 -1.43812876E+00
 -9.30375162E-01 -3.23804624E+00 -1.43812876E+00 -9.30375162E-01 -3.23804624E+00
 -1.43812876E+00 -9.30375162E-01 -3.23804624E+00 -1.43812876E+00 -9.30375162E-01
 -3.23804624E+00 -1.43812876E+00
Num ILSW                                   I              100
ILSW                                       I   N=         100
           0           0           0           1           2           0
           0           0           0           0           0          -1
           5           0           0           0           2           0
           0           0           0           0           1           0
           1           0           0           0           0           0
           0           0      100000           0          -1           0
           0           0           0           0           0           0
           0           0           0           1           1           0
           0 -2000000000           1           0           0           0
           0           0           4          52           0           0
           0           0           0           0           0           0
           0           0           0           6           4           1
           0           0           0           0           0           0
           0           0           0           0           0           0
           0           0           0           0           0           0
           0           0           0           0           0           0
           0           0           0           0
Num RLSW                                   I               52
RLSW                                       R   N=          52
  1.00000000E+00  1.00000000E+00  1.00000000E+00  1.00000000E+00  1.00000000E+00
  0.00000000E+00  0.00000000E+00  1.00000000E+00  0.00000000E+00  0.00000000E+00
  0.00000000E+00  0.00000000E+00  1.00000000E+00  0.00000000E+00  0.00000000E+00
  0.00000000E+00  0.00000000E+00  1.00000000E+00  0.00000000E+00  0.00000000E+00
  0.00000000E+00  0.00000000E+00  1.00000000E+00  0.00000000E+00  0.00000000E+00
  0.00000000E+00  0.00000000E+00  1.00000000E+00  0.00000000E+00  0.00000000E+00
  0.00000000E+00  0.00000000E+00  1.00000000E+00  0.00000000E+00  0.00000000E+00
  0.00000000E+00  0.00000000E+00  0.00000000E+00  1.00000000E+00  1.00000000E+00
  0.00000000E+00  1.00000000E+00  0.00000000E+00  0.00000000E+00  0.00000000E+00
  0.00000000E+00  0.00000000E+00  0.00000000E+00  0.00000000E+00  0.00000000E+00
  0.00000000E+00  0.00000000E+00
MxBond                                     I                3
NBond                                      I   N=           6
           2           1           2           3           1           1
IBond                                      I   N=          18
           2           3           0           1           0           0
           1           4           0           3           5           6
           4           0           0           4           0           0
RBond                                      R   N=          18
  1.00000000E+00  1.00000000E+00  0.00000000E+00  1.00000000E+00  0.00000000E+00
  0.00000000E+00  1.00000000E+00  1.00000000E-01  0.00000000E+00  1.00000000E-01
  1.00000000E+00  1.00000000E+00  1.00000000E+00  0.00000000E+00  0.00000000E+00
  1.00000000E+00  0.00000000E+00  0.00000000E+00
Virial Ratio                               R      2.001499746264646E+00
SCF Energy                                 R     -1.521261128617029E+02
MP2 Energy                                 R     -1.526662407845191E+02
Total Energy                               R     -1.526662407845191E+02
Post-SCF wavefunction norm                 R      1.501732060990735E+00
RMS Force                                  R      4.614475338132423E-08
RMS Density                                R      1.216347393658520E-09
NImag                                      I                0
Job Status                                 I                1
Nuclear derivative order                   I                3
External E-field                           R   N=          35
  0.00000000E+00  0.00000000E+00  0.00000000E+00  0.00000000E+00  0.00000000E+00
  0.00000000E+00  0.00000000E+00  0.00000000E+00  0.00000000E+00  0.00000000E+00
  0.00000000E+00  0.00000000E+00  0.00000000E+00  0.00000000E+00  0.00000000E+00
  0.00000000E+00  0.00000000E+00  0.00000000E+00  0.00000000E+00  0.00000000E+00
  0.00000000E+00  0.00000000E+00  0.00000000E+00  0.00000000E+00  0.00000000E+00
  0.00000000E+00  0.00000000E+00  0.00000000E+00  0.00000000E+00  0.00000000E+00
  0.00000000E+00  0.00000000E+00  0.00000000E+00  0.00000000E+00  0.00000000E+00
IOpCl                                      I                0
IROHF                                      I                0
Alpha Orbital Energies                     R   N=         184
 -2.05926724E+01 -2.05360098E+01 -1.37877419E+00 -1.32056165E+00 -7.40686656E-01
 -6.92826761E-01 -6.13966267E-01 -5.58490587E-01 -5.30825721E-01 -4.80807688E-01
  2.28395314E-02  4.55475291E-02  4.67984683E-02  7.62965764E-02  1.21533207E-01
  1.42330531E-01  1.64057750E-01  1.69581649E-01  1.77480719E-01  1.86687879E-01
  2.14967887E-01  2.18757180E-01  2.35120460E-01  2.43598877E-01  2.70220102E-01
  2.71985337E-01  2.99421706E-01  3.13049405E-01  3.67398954E-01  3.70692817E-01
  3.72023107E-01  4.12158626E-01  4.13094049E-01  4.41163109E-01  4.42271264E-01
  4.56258788E-01  4.85184806E-01  5.80638223E-01  5.92984541E-01  6.10816287E-01
  6.71419118E-01  7.07311306E-01  7.18742044E-01  7.30619565E-01  7.54100028E-01
  7.76981819E-01  7.84537329E-01  7.94228793E-01  8.27045797E-01  8.30767448E-01
  8.58899955E-01  8.91689325E-01  9.05348618E-01  9.32316497E-01  9.44929254E-01
  9.61291183E-01  9.66858756E-01  9.72249410E-01  9.87142039E-01  1.00021676E+00
  1.01748385E+00  1.02334996E+00  1.03501271E+00  1.05247618E+00  1.07074356E+00
  1.12537501E+00  1.15226668E+00  1.18552492E+00  1.18586539E+00  1.23150031E+00
  1.23836774E+00  1.24365664E+00  1.29187575E+00  1.30674098E+00  1.38478171E+00
  1.43392668E+00  1.48548934E+00  1.50714321E+00  1.56158492E+00  1.57365683E+00
  1.63747397E+00  1.64800521E+00  1.70659852E+00  1.72694982E+00  1.81739493E+00
  1.82739393E+00  1.94918780E+00  1.99548203E+00  2.05432440E+00  2.09117234E+00
  2.13452296E+00  2.26052928E+00  2.31006615E+00  2.31663583E+00  2.32505031E+00
  2.41534510E+00  2.44453180E+00  2.45935983E+00  2.47704417E+00  2.49056422E+00
  2.50475118E+00  2.50620521E+00  2.56371349E+00  2.61070866E+00  2.66561861E+00
  2.69033479E+00  2.74961583E+00  2.75369107E+00  2.78174892E+00  2.81939838E+00
  2.85708516E+00  2.90881397E+00  2.92904395E+00  2.99461087E+00  3.01032609E+00
  3.01704449E+00  3.74535949E+00  3.77026947E+00  3.78952936E+00  4.02806790E+00
  4.07652606E+00  4.08542514E+00  4.18629189E+00  4.22841894E+00  4.23830292E+00
  4.25393218E+00  4.27873754E+00  4.30620085E+00  4.33679710E+00  4.41043993E+00
  4.41542656E+00  4.47164568E+00  4.47906151E+00  4.48120718E+00  4.49342173E+00
  4.55262427E+00  4.60195988E+00  4.73271685E+00  4.74585569E+00  4.84536942E+00
  4.88569140E+00  5.02898045E+00  5.10250183E+00  5.16107793E+00  5.17805484E+00
  5.23216813E+00  5.27823198E+00  5.31347030E+00  5.35274327E+00  5.42401429E+00
  5.58583866E+00  5.63813243E+00  5.73295157E+00  5.76369547E+00  6.23339515E+00
  6.36989238E+00  6.51277480E+00  6.56636257E+00  6.78485319E+00  6.78652349E+00
  6.91647633E+00  6.98553667E+00  7.15224913E+00  7.16472054E+00  7.27745900E+00
  7.29823901E+00  7.30122603E+00  7.32542217E+00  7.35046941E+00  7.36467165E+00
  7.38296657E+00  7.42607965E+00  7.45466806E+00  7.53542695E+00  7.58275857E+00
  7.72695577E+00  7.90965431E+00  7.93414231E+00  8.00486461E+00  8.07534830E+00
  8.86799696E+00  8.89633063E+00  1.57846658E+01  1.68782234E+01
Alpha MO coefficients                      R   N=       33856
 -5.65273713E-05 -2.46124626E-05 -1.48863479E-05  5.64843279E-04  1.39518469E-04
 -4.36746682E-06  5.55201237E-06  0.00000000E+00  4.01437182E-05 -1.13640861E-05
  0.00000000E+00  2.36213939E-04 -3.96862975E-04  0.00000000E+00  1.51370031E-04
  5.48243636E-06  0.00000000E+00  3.18778799E-06  0.00000000E+00  0.00000000E+00
  3.04648928E-06 -3.45747175E-06 -4.09967661E-05  0.00000000E+00  0.00000000E+00
 -2.58419840E-05  1.97490581E-05 -1.35113400E-04  0.00000000E+00  0.00000000E+00
 -1.20964110E-04 -3.91435264E-05  0.00000000E+00 -1.06046396E-06 -3.96150711E-06
  0.00000000E+00  0.00000000E+00 -3.18155559E-06  2.05311758E-06  0.00000000E+00
 -8.31948247E-06  3.64383453E-05  0.00000000E+00  0.00000000E+00  1.83514253E-06
  3.46649324E-05  1.89309293E-07 -2.80248256E-04 -2.81046882E-04 -4.61094311E-05
  6.04071324E-06 -3.21620511E-06  0.00000000E+00  1.08649764E-04  7.55283843E-05
  0.00000000E+00  5.09517240E-05 -5.30865509E-05  0.00000000E+00  1.03738704E-05
  0.00000000E+00  0.00000000E+00 -4.66655138E-06 -2.24115328E-06 -1.22845824E-05
  0.00000000E+00  0.00000000E+00 -3.19904712E-05 -1.36079336E-05  1.09157142E-05
 -6.94814630E-04 -4.36678405E-04  6.25334966E-05  2.87262335E-06 -2.46984880E-05
  0.00000000E+00  1.33998780E-05 -8.99508544E-06  0.00000000E+00 -1.40081362E-04
  5.99164747E-04  0.00000000E+00  9.33963439E-06  0.00000000E+00  0.00000000E+00
  1.80743082E-05 -2.11906693E-06  1.41060760E-05  0.00000000E+00  0.00000000E+00
 -2.83485540E-05  1.73785401E-05  9.76689936E-01 -8.98906099E-03  4.36505978E-02
  1.28393009E-04  7.76901509E-04 -1.53882942E-03 -9.28689274E-04  0.00000000E+00
  1.33997121E-03  7.68946225E-04  0.00000000E+00  1.00767092E-04  4.36566309E-04
  0.00000000E+00 -2.00187238E-04  4.87522113E-05  0.00000000E+00  5.59872881E-05
  0.00000000E+00  0.00000000E+00  1.07781163E-05  4.62260840E-05 -4.58561426E-04
  0.00000000E+00  0.00000000E+00 -9.96003321E-05 -3.52133108E-04 -1.47899679E-04
  0.00000000E+00  0.00000000E+00 -1.27827879E-04  1.28640745E-04  0.00000000E+00
 -1.65196000E-05 -5.23226505E-06  0.00000000E+00  0.00000000E+00 -5.86673895E-07
  1.85028910E-05  0.00000000E+00  1.93678821E-04  1.06503902E-04  0.00000000E+00
  0.00000000E+00 -1.34048109E-05  7.54876164E-06  4.91367432E-04  1.47716734E-03
 -2.14454484E-04  2.09045825E-06  9.08431540E-05  6.36131450E-05 -1.63362115E-04
  5.79054773E-04  3.67006151E-04 -7.46987063E-04  1.10616778E-04  5.51968980E-05
 -1.30984812E-04 -2.73171185E-05  8.65200164E-05  6.13399022E-05 -2.34840716E-05
 -4.80520322E-05  1.79471245E-04 -3.22651449E-04 -2.03393072E-04  9.05733577E-05
  1.40969793E-04  4.91367432E-04  1.47716734E-03 -2.14454484E-04  2.09045825E-06
  9.08431540E-05  6.36131450E-05  1.63362115E-04  5.79054773E-04  3.67006151E-04
  7.46987063E-04  1.10616778E-04  5.51968980E-05  1.30984812E-04 -2.73171185E-05
 -8.65200164E-05 -6.13399022E-05 -2.34840716E-05 -4.80520322E-05  1.79471245E-04
  3.22651449E-04  2.03393072E-04  9.05733577E-05  1.40969793E-04  9.76646895E-01
 -9.25357084E-03  4.36473401E-02 -4.57257395E-05 -6.44204443E-04  1.54245346E-03
 -9.09920362E-04  0.00000000E+00 -1.25939291E-03  9.09553691E-04  0.00000000E+00
 -6.06566040E-04 -9.93926527E-04  0.00000000E+00 -2.01100846E-05 -1.48814260E-05
  0.00000000E+00 -6.71422058E-05  0.00000000E+00  0.00000000E+00 -2.86848735E-06
  2.68213443E-05  4.60911172E-04  0.00000000E+00  0.00000000E+00 -3.65585309E-06
 -2.20556096E-04 -3.96041790E-06  0.00000000E+00  0.00000000E+00 -2.10869824E-04
 -3.00562296E-04  0.00000000E+00 -7.54383353E-06  7.43092025E-06  0.00000000E+00
  0.00000000E+00 -5.98832396E-06  5.70251241E-05  0.00000000E+00  1.15327983E-04
 -8.21591153E-06  0.00000000E+00  0.00000000E+00  1.35982612E-05 -2.65009343E-04
  5.10913257E-04  1.74977997E-03  1.31061975E-03 -5.32079538E-05 -1.76095691E-04
 -8.20456625E-05  0.00000000E+00 -9.30948476E-04 -4.31172181E-05  0.00000000E+00
 -4.49149392E-04 -1.29296961E-04  0.00000000E+00  7.01326690E-05  0.00000000E+00
  0.00000000E+00 -1.10632662E-04 -7.23609242E-05 -1.65693338E-04  0.00000000E+00
  0.00000000E+00  2.87315679E-04  8.06445956E-05  4.25338066E-04  5.64239273E-04
  1.27397683E-03  2.81338233E-04 -1.23522478E-05  1.40894872E-04  0.00000000E+00
 -7.93205252E-05  1.21868065E-03  0.00000000E+00 -1.60935706E-04 -1.22657585E-03
  0.00000000E+00  8.43296620E-05  0.00000000E+00  0.00000000E+00  1.27513873E-04
  5.75877233E-05 -7.13643510E-04  0.00000000E+00  0.00000000E+00 -1.24036617E-03
 -1.18913586E-04  6.90883886E-05  8.03739633E-05  7.07384164E-06 -5.50900713E-04
 -5.59625488E-04 -3.40944310E-06  6.47036714E-06  0.00000000E+00  2.36651122E-05
 -2.11662613E-05  0.00000000E+00 -2.96176571E-04 -1.13504602E-03  0.00000000E+00
 -2.54972300E-05 -3.26892433E-04  0.00000000E+00 -2.65943720E-06  0.00000000E+00
  0.00000000E+00 -6.07423355E-06 -7.38152751E-06  1.30694348E-05  0.00000000E+00
  0.00000000E+00  5.29837755E-05  4.12291854E-05  7.22262098E-05  0.00000000E+00
  0.00000000E+00  1.25926202E-04 -2.60228183E-05  0.00000000E+00  4.10363785E-06
  1.75718772E-05  0.00000000E+00  0.00000000E+00 -6.83949649E-06  1.86676416E-05
  0.00000000E+00  7.21438920E-06 -4.97381416E-05  0.00000000E+00  0.00000000E+00
  4.61429128E-05 -4.95422532E-05 -4.96006857E-06 -1.64914525E-04 -2.22874324E-04
 -7.34445676E-05 -3.31354299E-06  8.10152519E-06  1.82035142E-06  1.18211972E-05
  8.31451983E-05  5.42006984E-05 -5.34582608E-05 -2.56950521E-05  6.85731210E-05
 -1.22514323E-05 -7.01483664E-06 -6.50536495E-06 -8.75488296E-06  2.83266905E-06
  8.06412361E-06 -4.91505342E-06 -4.40639870E-05  1.22360803E-05  4.01633793E-05
 -4.96006857E-06 -1.64914525E-04 -2.22874324E-04 -7.34445676E-05 -3.31354299E-06
  8.10152519E-06 -1.82035142E-06  1.18211972E-05  8.31451983E-05 -5.42006984E-05
 -5.34582608E-05 -2.56950521E-05 -6.85731210E-05 -1.22514323E-05  7.01483664E-06
  6.50536495E-06 -8.75488296E-06  2.83266905E-06  8.06412361E-06  4.91505342E-06
  4.40639870E-05  1.22360803E-05  4.01633793E-05 -1.57126241E-02  3.69238488E-02
  1.00243930E-02  2.46928038E-02  7.36633733E-04  2.57748293E-03 -3.58068616E-03