 Entering Gaussian System, Link 0=g16
 Input=h2o_2_tz.gjf
 Output=h2o_2_tz.log
 Initial command:
 /sw/contrib/gaussian/g16/B01/g16/l1.exe "/scr/Gau-110713.inp" -scrdir="/scr/"
 Entering Link 1 = /sw/contrib/gaussian/g16/B01/g16/l1.exe PID=    110717.
  
 Copyright (c) 1988-2017, Gaussian, Inc.  All Rights Reserved.
  
 This is part of the Gaussian(R) 16 program.  It is based on
 the Gaussian(R) 09 system (copyright 2009, Gaussian, Inc.),
 the Gaussian(R) 03 system (copyright 2003, Gaussian, Inc.),
 the Gaussian(R) 98 system (copyright 1998, Gaussian, Inc.),
 the Gaussian(R) 94 system (copyright 1995, Gaussian, Inc.),
 the Gaussian 92(TM) system (copyright 1992, Gaussian, Inc.),
 the Gaussian 90(TM) system (copyright 1990, Gaussian, Inc.),
 the Gaussian 88(TM) system (copyright 1988, Gaussian, Inc.),
 the Gaussian 86(TM) system (copyright 1986, Carnegie Mellon
 University), and the Gaussian 82(TM) system (copyright 1983,
 Carnegie Mellon University). Gaussian is a federally registered
 trademark of Gaussian, Inc.
  
 This software contains proprietary and confidential information,
 including trade secrets, belonging to Gaussian, Inc.
  
 This software is provided under written license and may be
 used, copied, transmitted, or stored only in accord with that
 written license.
  
 The following legend is applicable only to US Government
 contracts under FAR:
  
                    RESTRICTED RIGHTS LEGEND
  
 Use, reproduction and disclosure by the US Government is
 subject to restrictions as set forth in subparagraphs (a)
 and (c) of the Commercial Computer Software - Restricted
 Rights clause in FAR 52.227-19.
  
 Gaussian, Inc.
 340 Quinnipiac St., Bldg. 40, Wallingford CT 06492
  
  
 ---------------------------------------------------------------
 Warning -- This program may not be used in any manner that
 competes with the business of Gaussian, Inc. or will provide
 assistance to any competitor of Gaussian, Inc.  The licensee
 of this program is prohibited from giving any competitor of
 Gaussian, Inc. access to this program.  By using this program,
 the user acknowledges that Gaussian, Inc. is engaged in the
 business of creating and licensing software in the field of
 computational chemistry and represents and warrants to the
 licensee that it is not a competitor of Gaussian, Inc. and that
 it will not use this program in any manner prohibited above.
 ---------------------------------------------------------------
  

 Cite this work as:
 Gaussian 16, Revision B.01,
 M. J. Frisch, G. W. Trucks, H. B. Schlegel, G. E. Scuseria, 
 M. A. Robb, J. R. Cheeseman, G. Scalmani, V. Barone, 
 G. A. Petersson, H. Nakatsuji, X. Li, M. Caricato, A. V. Marenich, 
 J. Bloino, B. G. Janesko, R. Gomperts, B. Mennucci, H. P. Hratchian, 
 J. V. Ortiz, A. F. Izmaylov, J. L. Sonnenberg, D. Williams-Young, 
 F. Ding, F. Lipparini, F. Egidi, J. Goings, B. Peng, A. Petrone, 
 T. Henderson, D. Ranasinghe, V. G. Zakrzewski, J. Gao, N. Rega, 
 G. Zheng, W. Liang, M. Hada, M. Ehara, K. Toyota, R. Fukuda, 
 J. Hasegawa, M. Ishida, T. Nakajima, Y. Honda, O. Kitao, H. Nakai, 
 T. Vreven, K. Throssell, J. A. Montgomery, Jr., J. E. Peralta, 
 F. Ogliaro, M. J. Bearpark, J. J. Heyd, E. N. Brothers, K. N. Kudin, 
 V. N. Staroverov, T. A. Keith, R. Kobayashi, J. Normand, 
 K. Raghavachari, A. P. Rendell, J. C. Burant, S. S. Iyengar, 
 J. Tomasi, M. Cossi, J. M. Millam, M. Klene, C. Adamo, R. Cammi, 
 J. W. Ochterski, R. L. Martin, K. Morokuma, O. Farkas, 
 J. B. Foresman, and D. J. Fox, Gaussian, Inc., Wallingford CT, 2016.
 
 ******************************************
 Gaussian 16:  ES64L-G16RevB.01 20-Dec-2017
                24-Apr-2022 
 ******************************************
 %nproc=28
 Will use up to   28 processors via shared memory.
 %mem=120GB
 %chk=/gscratch/ilahie/abmccoy/ch4/hoh_2_v2/hoh_2.chk
 -------------------------------------------
 #p opt=(verytight) mp2/aug-cc-pvtz freq=anh
 -------------------------------------------
 1/7=1,18=20,19=15,38=1,80=1/1,3;
 2/9=110,12=2,17=6,18=5,40=1/2;
 3/5=16,6=1,7=10,11=9,25=1,30=1,71=1/1,2,3;
 4//1;
 5/5=2,38=5/2;
 8/6=4,10=1/1;
 9/15=2,16=-3/6;
 10/5=1/2;
 6/7=2,8=2,9=2,10=2/1;
 7/12=2/1,2,3,16;
 1/7=1,18=20,19=15,80=1/3(2);
 2/9=110/2;
 99//99;
 2/9=110/2;
 3/5=16,6=1,7=10,11=9,25=1,30=1,71=1/1,2,3;
 4/5=5,16=3,69=1/1;
 5/5=2,38=5/2;
 8/6=4,10=1/1;
 9/15=2,16=-3/6;
 10/5=1/2;
 7/12=2/1,2,3,16;
 1/7=1,18=20,19=15,80=1/3(-8);
 2/9=110/2;
 6/7=2,8=2,9=2,10=2/1;
 99/9=10/99;
 Leave Link    1 at Sun Apr 24 18:00:04 2022, MaxMem= 16106127360 cpu:               0.7 elap:               0.0
 (Enter /sw/contrib/gaussian/g16/B01/g16/l101.exe)
 -----
 title
 -----
 Symbolic Z-matrix:
 Charge =  0 Multiplicity = 1
 O
 H                    1    r1
 H                    1    r2       2    a1
 O                    1    r3       2    a2       3    d1       0
 H                    4    r4       1    a3       2    d2       0
 H                    4    r4       1    a3       2    -d2      0
       Variables:
  r1                    0.9604                   
  r2                    0.9686                   
  r3                    2.9073                   
  r4                    0.9623                   
  a1                  104.482                    
  a2                  110.028                    
  a3                  109.6816                   
  d1                    0.                       
  d2                  122.8665                   
 
 Add virtual bond connecting atoms O4         and H3         Dist= 3.68D+00.
 Add atom      4 valence  3 ND=      2 dihedral       3      4      5      6
 ITRead=  0  0  0  0  0  0
 MicOpt= -1 -1 -1 -1 -1 -1
 NAtoms=      6 NQM=        6 NQMF=       0 NMMI=      0 NMMIF=      0
                NMic=       0 NMicF=      0.
                    Isotopes and Nuclear Properties:
 (Nuclear quadrupole moments (NQMom) in fm**2, nuclear magnetic moments (NMagM)
  in nuclear magnetons)

  Atom         1           2           3           4           5           6
 IAtWgt=          16           1           1          16           1           1
 AtmWgt=  15.9949146   1.0078250   1.0078250  15.9949146   1.0078250   1.0078250
 NucSpn=           0           1           1           0           1           1
 AtZEff=  -0.0000000  -0.0000000  -0.0000000  -0.0000000  -0.0000000  -0.0000000
 NQMom=    0.0000000   0.0000000   0.0000000   0.0000000   0.0000000   0.0000000
 NMagM=    0.0000000   2.7928460   2.7928460   0.0000000   2.7928460   2.7928460
 AtZNuc=   8.0000000   1.0000000   1.0000000   8.0000000   1.0000000   1.0000000
 Leave Link  101 at Sun Apr 24 18:00:04 2022, MaxMem= 16106127360 cpu:              10.1 elap:               0.4
 (Enter /sw/contrib/gaussian/g16/B01/g16/l103.exe)

 GradGradGradGradGradGradGradGradGradGradGradGradGradGradGradGradGradGrad
 Berny optimization.
 Initialization pass.
                           ----------------------------
                           !    Initial Parameters    !
                           ! (Angstroms and Degrees)  !
 --------------------------                            --------------------------
 ! Name  Definition              Value          Derivative Info.                !
 --------------------------------------------------------------------------------
 ! R1    R(1,2)                  0.9604         estimate D2E/DX2                !
 ! R2    R(1,3)                  0.9686         estimate D2E/DX2                !
 ! R3    R(3,4)                  1.9455         estimate D2E/DX2                !
 ! R4    R(4,5)                  0.9623         estimate D2E/DX2                !
 ! R5    R(4,6)                  0.9623         estimate D2E/DX2                !
 ! A1    A(2,1,3)              104.482          estimate D2E/DX2                !
 ! A2    A(3,4,5)              111.161          estimate D2E/DX2                !
 ! A3    A(3,4,6)              111.161          estimate D2E/DX2                !
 ! A4    A(5,4,6)              104.5332         estimate D2E/DX2                !
 ! A5    L(1,3,4,2,-1)         188.3039         estimate D2E/DX2                !
 ! A6    L(1,3,4,2,-2)         180.0            estimate D2E/DX2                !
 ! D1    D(2,1,4,5)            122.8665         estimate D2E/DX2                !
 ! D2    D(2,1,4,6)           -122.8665         estimate D2E/DX2                !
 ! D3    D(3,4,5,6)            120.0155         estimate D2E/DX2                !
 --------------------------------------------------------------------------------
 Trust Radius=3.00D-01 FncErr=1.00D-07 GrdErr=1.00D-07 EigMax=2.50D+02 EigMin=1.00D-04
 Number of steps in this run=     24 maximum allowed number of steps=    100.
 GradGradGradGradGradGradGradGradGradGradGradGradGradGradGradGradGradGrad

 Leave Link  103 at Sun Apr 24 18:00:04 2022, MaxMem= 16106127360 cpu:               0.2 elap:               0.0
 (Enter /sw/contrib/gaussian/g16/B01/g16/l202.exe)
                          Input orientation:                          
 ---------------------------------------------------------------------
 Center     Atomic      Atomic             Coordinates (Angstroms)
 Number     Number       Type             X           Y           Z
 ---------------------------------------------------------------------
      1          8           0        0.000000    0.000000    0.000000
      2          1           0        0.000000    0.000000    0.960400
      3          1           0        0.937824    0.000000   -0.242223
      4          8           0        2.731482    0.000000   -0.995690
      5          1           0        2.867576   -0.761051   -1.568665
      6          1           0        2.867576    0.761051   -1.568665
 ---------------------------------------------------------------------
                    Distance matrix (angstroms):
                    1          2          3          4          5
     1  O    0.000000
     2  H    0.960400   0.000000
     3  H    0.968600   1.525063   0.000000
     4  O    2.907300   3.359655   1.945487   0.000000
     5  H    3.356025   3.898508   2.462233   0.962300   0.000000
     6  H    3.356025   3.898508   2.462233   0.962300   1.522103
                    6
     6  H    0.000000
 Stoichiometry    H4O2
 Framework group  CS[SG(H2O2),X(H2)]
 Deg. of freedom     8
 Full point group                 CS      NOp   2
 Largest Abelian subgroup         CS      NOp   2
 Largest concise Abelian subgroup CS      NOp   2
                         Standard orientation:                         
 ---------------------------------------------------------------------
 Center     Atomic      Atomic             Coordinates (Angstroms)
 Number     Number       Type             X           Y           Z
 ---------------------------------------------------------------------
      1          8           0       -0.000625    1.517817   -0.000000
      2          1           0        0.901695    1.846734   -0.000000
      3          1           0        0.092985    0.553751   -0.000000
      4          8           0       -0.000625   -1.389483    0.000000
      5          1           0       -0.492340   -1.713579    0.761051
      6          1           0       -0.492340   -1.713579   -0.761051
 ---------------------------------------------------------------------
 Rotational constants (GHZ):         216.9159627           6.4230457           6.4226304
 Leave Link  202 at Sun Apr 24 18:00:05 2022, MaxMem= 16106127360 cpu:               2.5 elap:               0.1
 (Enter /sw/contrib/gaussian/g16/B01/g16/l301.exe)
 Standard basis: Aug-CC-pVTZ (5D, 7F)
 Ernie: Thresh=  0.10000D-02 Tol=  0.10000D-05 Strict=F.
 Ernie:  6 primitive shells out of 104 were deleted.
 There are   135 symmetry adapted cartesian basis functions of A'  symmetry.
 There are    75 symmetry adapted cartesian basis functions of A"  symmetry.
 There are   115 symmetry adapted basis functions of A'  symmetry.
 There are    69 symmetry adapted basis functions of A"  symmetry.
   184 basis functions,   252 primitive gaussians,   210 cartesian basis functions
    10 alpha electrons       10 beta electrons
       nuclear repulsion energy        36.5811716311 Hartrees.
 IExCor=    0 DFT=F Ex=HF Corr=None ExCW=0 ScaHFX=  1.000000
 ScaDFX=  1.000000  1.000000  1.000000  1.000000 ScalE2=  1.000000  1.000000
 IRadAn=      5 IRanWt=     -1 IRanGd=            0 ICorTp=0 IEmpDi=  4
 NAtoms=    6 NActive=    6 NUniq=    5 SFac= 1.44D+00 NAtFMM=   60 NAOKFM=F Big=F
 Integral buffers will be    131072 words long.
 Raffenetti 1 integral format.
 Two-electron integral symmetry is turned on.
 Leave Link  301 at Sun Apr 24 18:00:05 2022, MaxMem= 16106127360 cpu:               1.4 elap:               0.1
 (Enter /sw/contrib/gaussian/g16/B01/g16/l302.exe)
 NPDir=0 NMtPBC=     1 NCelOv=     1 NCel=       1 NClECP=     1 NCelD=      1
         NCelK=      1 NCelE2=     1 NClLst=     1 CellRange=     0.0.
 One-electron integrals computed using PRISM.
 One-electron integral symmetry used in STVInt
 NBasis=   184 RedAO= T EigKep=  2.30D-04  NBF=   115    69
 NBsUse=   184 1.00D-06 EigRej= -1.00D+00 NBFU=   115    69
 Leave Link  302 at Sun Apr 24 18:00:05 2022, MaxMem= 16106127360 cpu:               3.9 elap:               0.2
 (Enter /sw/contrib/gaussian/g16/B01/g16/l303.exe)
 DipDrv:  MaxL=1.
 Leave Link  303 at Sun Apr 24 18:00:05 2022, MaxMem= 16106127360 cpu:               0.7 elap:               0.0
 (Enter /sw/contrib/gaussian/g16/B01/g16/l401.exe)
 ExpMin= 2.53D-02 ExpMax= 1.53D+04 ExpMxC= 5.22D+02 IAcc=3 IRadAn=         5 AccDes= 0.00D+00
 Harris functional with IExCor=  205 and IRadAn=       5 diagonalized for initial guess.
 HarFok:  IExCor=  205 AccDes= 0.00D+00 IRadAn=         5 IDoV= 1 UseB2=F ITyADJ=14
 ICtDFT=  3500011 ScaDFX=  1.000000  1.000000  1.000000  1.000000
 FoFCou: FMM=F IPFlag=           0 FMFlag=      100000 FMFlg1=           0
         NFxFlg=           0 DoJE=T BraDBF=F KetDBF=T FulRan=T
         wScrn=  0.000000 ICntrl=       500 IOpCl=  0 I1Cent=   200000004 NGrid=           0
         NMat0=    1 NMatS0=      1 NMatT0=    0 NMatD0=    1 NMtDS0=    0 NMtDT0=    0
 Petite list used in FoFCou.
 Harris En= -152.312874724463    
 JPrj=0 DoOrth=F DoCkMO=F.
 Initial guess orbital symmetries:
       Occupied  (A') (A') (A') (A') (A") (A') (A') (A') (A') (A")
       Virtual   (A') (A') (A") (A') (A') (A') (A") (A') (A") (A')
                 (A') (A") (A') (A') (A") (A') (A') (A') (A") (A')
                 (A') (A") (A") (A') (A") (A') (A') (A') (A") (A')
                 (A') (A') (A") (A') (A") (A") (A') (A') (A') (A")
                 (A') (A') (A') (A") (A') (A") (A') (A") (A') (A')
                 (A") (A') (A') (A") (A") (A") (A') (A') (A') (A")
                 (A') (A") (A') (A") (A') (A') (A") (A') (A") (A')
                 (A") (A') (A") (A') (A') (A") (A') (A') (A') (A")
                 (A') (A") (A') (A") (A') (A') (A') (A") (A') (A')
                 (A') (A") (A") (A') (A') (A") (A") (A') (A') (A')
                 (A") (A') (A") (A') (A") (A') (A') (A') (A") (A")
                 (A') (A") (A') (A") (A') (A') (A') (A") (A") (A")
                 (A") (A') (A") (A') (A') (A') (A") (A') (A') (A')
                 (A") (A') (A") (A') (A") (A") (A') (A") (A') (A')
                 (A") (A') (A') (A') (A') (A') (A") (A') (A") (A')
                 (A') (A') (A") (A') (A") (A') (A") (A') (A") (A')
                 (A") (A") (A') (A") (A') (A') (A') (A") (A') (A')
                 (A') (A") (A') (A')
 The electronic state of the initial guess is 1-A'.
 Leave Link  401 at Sun Apr 24 18:00:05 2022, MaxMem= 16106127360 cpu:               6.6 elap:               0.3
 (Enter /sw/contrib/gaussian/g16/B01/g16/l502.exe)
 Keep R1 ints in memory in symmetry-blocked form, NReq=217645672.
 FoFCou: FMM=F IPFlag=           0 FMFlag=           0 FMFlg1=           0
         NFxFlg=           0 DoJE=F BraDBF=F KetDBF=F FulRan=T
         wScrn=  0.000000 ICntrl=       600 IOpCl=  0 I1Cent=           0 NGrid=           0
         NMat0=    1 NMatS0=  17020 NMatT0=    0 NMatD0=    1 NMtDS0=    0 NMtDT0=    0
 Petite list used in FoFCou.
 Closed shell SCF:
 Using DIIS extrapolation, IDIIS=  1040.
 NGot= 16106127360 LenX= 16033235579 LenY= 16033191038
 Requested convergence on RMS density matrix=1.00D-08 within 128 cycles.
 Requested convergence on MAX density matrix=1.00D-06.
 Requested convergence on             energy=1.00D-06.
 No special actions if energy rises.

 Cycle   1  Pass 1  IDiag  1:
 E= -151.960158704501    
 DIIS: error= 3.53D-02 at cycle   1 NSaved=   1.
 NSaved= 1 IEnMin= 1 EnMin= -151.960158704501     IErMin= 1 ErrMin= 3.53D-02
 ErrMax= 3.53D-02  0.00D+00 EMaxC= 1.00D-01 BMatC= 3.93D-01 BMatP= 3.93D-01
 IDIUse=3 WtCom= 6.47D-01 WtEn= 3.53D-01
 Coeff-Com:  0.100D+01
 Coeff-En:   0.100D+01
 Coeff:      0.100D+01
 Gap=     0.417 Goal=   None    Shift=    0.000
 GapD=    0.417 DampG=2.000 DampE=0.500 DampFc=1.0000 IDamp=-1.
 RMSDP=1.53D-03 MaxDP=4.95D-02              OVMax= 1.25D-01

 Cycle   2  Pass 1  IDiag  1:
 E= -152.062222388416     Delta-E=       -0.102063683915 Rises=F Damp=F
 DIIS: error= 2.29D-02 at cycle   2 NSaved=   2.
 NSaved= 2 IEnMin= 2 EnMin= -152.062222388416     IErMin= 2 ErrMin= 2.29D-02
 ErrMax= 2.29D-02  0.00D+00 EMaxC= 1.00D-01 BMatC= 1.04D-01 BMatP= 3.93D-01
 IDIUse=3 WtCom= 7.71D-01 WtEn= 2.29D-01
 Coeff-Com:  0.309D+00 0.691D+00
 Coeff-En:   0.167D+00 0.833D+00
 Coeff:      0.276D+00 0.724D+00
 Gap=     0.528 Goal=   None    Shift=    0.000
 RMSDP=9.03D-04 MaxDP=3.50D-02 DE=-1.02D-01 OVMax= 6.44D-02

 Cycle   3  Pass 1  IDiag  1:
 E= -152.123261277454     Delta-E=       -0.061038889038 Rises=F Damp=F
 DIIS: error= 4.45D-03 at cycle   3 NSaved=   3.
 NSaved= 3 IEnMin= 3 EnMin= -152.123261277454     IErMin= 3 ErrMin= 4.45D-03
 ErrMax= 4.45D-03  0.00D+00 EMaxC= 1.00D-01 BMatC= 4.49D-03 BMatP= 1.04D-01
 IDIUse=3 WtCom= 9.56D-01 WtEn= 4.45D-02
 Coeff-Com: -0.297D-01 0.139D+00 0.890D+00
 Coeff-En:   0.000D+00 0.000D+00 0.100D+01
 Coeff:     -0.284D-01 0.133D+00 0.895D+00
 Gap=     0.501 Goal=   None    Shift=    0.000
 RMSDP=1.42D-04 MaxDP=4.03D-03 DE=-6.10D-02 OVMax= 1.07D-02

 Cycle   4  Pass 1  IDiag  1:
 E= -152.126061783244     Delta-E=       -0.002800505789 Rises=F Damp=F
 DIIS: error= 3.76D-04 at cycle   4 NSaved=   4.
 NSaved= 4 IEnMin= 4 EnMin= -152.126061783244     IErMin= 4 ErrMin= 3.76D-04
 ErrMax= 3.76D-04  0.00D+00 EMaxC= 1.00D-01 BMatC= 2.03D-05 BMatP= 4.49D-03
 IDIUse=3 WtCom= 9.96D-01 WtEn= 3.76D-03
 Coeff-Com:  0.635D-02-0.462D-01-0.250D+00 0.129D+01
 Coeff-En:   0.000D+00 0.000D+00 0.000D+00 0.100D+01
 Coeff:      0.633D-02-0.460D-01-0.249D+00 0.129D+01
 Gap=     0.503 Goal=   None    Shift=    0.000
 RMSDP=2.99D-05 MaxDP=1.12D-03 DE=-2.80D-03 OVMax= 2.38D-03

 Cycle   5  Pass 1  IDiag  1:
 E= -152.126105820311     Delta-E=       -0.000044037068 Rises=F Damp=F
 DIIS: error= 1.97D-04 at cycle   5 NSaved=   5.
 NSaved= 5 IEnMin= 5 EnMin= -152.126105820311     IErMin= 5 ErrMin= 1.97D-04
 ErrMax= 1.97D-04  0.00D+00 EMaxC= 1.00D-01 BMatC= 2.48D-06 BMatP= 2.03D-05
 IDIUse=3 WtCom= 9.98D-01 WtEn= 1.97D-03
 Coeff-Com:  0.283D-02-0.164D-01-0.906D-01 0.194D+00 0.910D+00
 Coeff-En:   0.000D+00 0.000D+00 0.000D+00 0.000D+00 0.100D+01
 Coeff:      0.283D-02-0.163D-01-0.904D-01 0.194D+00 0.910D+00
 Gap=     0.503 Goal=   None    Shift=    0.000
 RMSDP=7.34D-06 MaxDP=2.82D-04 DE=-4.40D-05 OVMax= 8.54D-04

 Cycle   6  Pass 1  IDiag  1:
 E= -152.126109507266     Delta-E=       -0.000003686954 Rises=F Damp=F
 DIIS: error= 7.02D-05 at cycle   6 NSaved=   6.
 NSaved= 6 IEnMin= 6 EnMin= -152.126109507266     IErMin= 6 ErrMin= 7.02D-05
 ErrMax= 7.02D-05  0.00D+00 EMaxC= 1.00D-01 BMatC= 3.59D-07 BMatP= 2.48D-06
 IDIUse=1 WtCom= 1.00D+00 WtEn= 0.00D+00
 Coeff-Com: -0.336D-03 0.325D-02 0.193D-01-0.160D+00 0.184D+00 0.954D+00
 Coeff:     -0.336D-03 0.325D-02 0.193D-01-0.160D+00 0.184D+00 0.954D+00
 Gap=     0.504 Goal=   None    Shift=    0.000
 RMSDP=3.22D-06 MaxDP=1.20D-04 DE=-3.69D-06 OVMax= 3.07D-04

 Cycle   7  Pass 1  IDiag  1:
 E= -152.126110060905     Delta-E=       -0.000000553639 Rises=F Damp=F
 DIIS: error= 9.00D-06 at cycle   7 NSaved=   7.
 NSaved= 7 IEnMin= 7 EnMin= -152.126110060905     IErMin= 7 ErrMin= 9.00D-06
 ErrMax= 9.00D-06  0.00D+00 EMaxC= 1.00D-01 BMatC= 1.05D-08 BMatP= 3.59D-07
 IDIUse=1 WtCom= 1.00D+00 WtEn= 0.00D+00
 Coeff-Com: -0.807D-04 0.278D-03 0.627D-03 0.197D-01-0.899D-01-0.173D+00
 Coeff-Com:  0.124D+01
 Coeff:     -0.807D-04 0.278D-03 0.627D-03 0.197D-01-0.899D-01-0.173D+00
 Coeff:      0.124D+01
 Gap=     0.504 Goal=   None    Shift=    0.000
 RMSDP=7.52D-07 MaxDP=2.59D-05 DE=-5.54D-07 OVMax= 7.15D-05

 Cycle   8  Pass 1  IDiag  1:
 E= -152.126110086180     Delta-E=       -0.000000025275 Rises=F Damp=F
 DIIS: error= 1.69D-06 at cycle   8 NSaved=   8.
 NSaved= 8 IEnMin= 8 EnMin= -152.126110086180     IErMin= 8 ErrMin= 1.69D-06
 ErrMax= 1.69D-06  0.00D+00 EMaxC= 1.00D-01 BMatC= 4.08D-10 BMatP= 1.05D-08
 IDIUse=1 WtCom= 1.00D+00 WtEn= 0.00D+00
 Coeff-Com:  0.297D-04-0.201D-03-0.106D-02 0.462D-02 0.759D-02-0.111D-01
 Coeff-Com: -0.212D+00 0.121D+01
 Coeff:      0.297D-04-0.201D-03-0.106D-02 0.462D-02 0.759D-02-0.111D-01
 Coeff:     -0.212D+00 0.121D+01
 Gap=     0.504 Goal=   None    Shift=    0.000
 RMSDP=1.34D-07 MaxDP=3.63D-06 DE=-2.53D-08 OVMax= 1.22D-05

 Cycle   9  Pass 1  IDiag  1:
 E= -152.126110087128     Delta-E=       -0.000000000948 Rises=F Damp=F
 DIIS: error= 5.82D-07 at cycle   9 NSaved=   9.
 NSaved= 9 IEnMin= 9 EnMin= -152.126110087128     IErMin= 9 ErrMin= 5.82D-07
 ErrMax= 5.82D-07  0.00D+00 EMaxC= 1.00D-01 BMatC= 2.10D-11 BMatP= 4.08D-10
 IDIUse=1 WtCom= 1.00D+00 WtEn= 0.00D+00
 Coeff-Com:  0.774D-06 0.119D-04 0.139D-03-0.210D-02 0.451D-02 0.127D-01
 Coeff-Com: -0.440D-01-0.202D+00 0.123D+01
 Coeff:      0.774D-06 0.119D-04 0.139D-03-0.210D-02 0.451D-02 0.127D-01
 Coeff:     -0.440D-01-0.202D+00 0.123D+01
 Gap=     0.504 Goal=   None    Shift=    0.000
 RMSDP=3.74D-08 MaxDP=8.74D-07 DE=-9.48D-10 OVMax= 3.29D-06

 Cycle  10  Pass 1  IDiag  1:
 E= -152.126110087180     Delta-E=       -0.000000000052 Rises=F Damp=F
 DIIS: error= 6.65D-08 at cycle  10 NSaved=  10.
 NSaved=10 IEnMin=10 EnMin= -152.126110087180     IErMin=10 ErrMin= 6.65D-08
 ErrMax= 6.65D-08  0.00D+00 EMaxC= 1.00D-01 BMatC= 4.40D-13 BMatP= 2.10D-11
 IDIUse=1 WtCom= 1.00D+00 WtEn= 0.00D+00
 Coeff-Com: -0.708D-06 0.238D-05-0.127D-05 0.222D-03-0.782D-03-0.158D-02
 Coeff-Com:  0.996D-02 0.153D-01-0.232D+00 0.121D+01
 Coeff:     -0.708D-06 0.238D-05-0.127D-05 0.222D-03-0.782D-03-0.158D-02
 Coeff:      0.996D-02 0.153D-01-0.232D+00 0.121D+01
 Gap=     0.504 Goal=   None    Shift=    0.000
 RMSDP=6.52D-09 MaxDP=1.79D-07 DE=-5.25D-11 OVMax= 4.04D-07

 SCF Done:  E(RHF) =  -152.126110087     A.U. after   10 cycles
            NFock= 10  Conv=0.65D-08     -V/T= 2.0015
 KE= 1.518981375472D+02 PE=-4.344216366871D+02 EE= 9.381621742165D+01
 Leave Link  502 at Sun Apr 24 18:00:07 2022, MaxMem= 16106127360 cpu:              31.6 elap:               1.8
 (Enter /sw/contrib/gaussian/g16/B01/g16/l801.exe)
 ExpMin= 2.53D-02 ExpMax= 1.53D+04 ExpMxC= 5.22D+02 IAcc=3 IRadAn=         5 AccDes= 0.00D+00
 HarFok:  IExCor=  205 AccDes= 0.00D+00 IRadAn=         5 IDoV=-2 UseB2=F ITyADJ=14
 ICtDFT= 12500011 ScaDFX=  1.000000  1.000000  1.000000  1.000000
 Largest valence mixing into a core orbital is  1.11D-04
 Largest core mixing into a valence orbital is  1.74D-05
 Range of M.O.s used for correlation:     3   184
 NBasis=   184 NAE=    10 NBE=    10 NFC=     2 NFV=     0
 NROrb=    182 NOA=     8 NOB=     8 NVA=   174 NVB=   174

 **** Warning!!: The largest alpha MO coefficient is  0.20117036D+02

 Leave Link  801 at Sun Apr 24 18:00:07 2022, MaxMem= 16106127360 cpu:               1.9 elap:               0.1
 (Enter /sw/contrib/gaussian/g16/B01/g16/l906.exe)
 Frozen-core derivative calculation, NFC=   2 NFV=   0.
 FulOut=F Deriv=T AODrv=T NAtomX=     6
   MMem=         151  MDisk=           8 MDiskD=           8
  W3Min=      386400 MinDsk=      868055 NBas6D=         210
 NBas2D=       22605    NTT=       22155    LW2=     3500000
    MDV= 16105707041 MDiskM=      383421 NBas2p=       17942
 Fully direct method using O(ONN) memory.
 IMap=   1   2   3   4   5   6   7   8   9  10
 JobTyp=1 Pass  1:  I=   3 to  10 NPSUse= 28 ParTrn=T ParDer=T DoDerP=T.
 Spin components of T(2) and E(2):
     alpha-alpha T2 =       0.1647434458D-01 E2=     -0.6592343103D-01
     alpha-beta  T2 =       0.9465369630D-01 E2=     -0.4082838254D+00
     beta-beta   T2 =       0.1647434458D-01 E2=     -0.6592343103D-01
 The integrals were generated   1 times.
 ANorm=    0.1061886239D+01
 E2 =    -0.5401306875D+00 EUMP2 =    -0.15266624077465D+03
 Leave Link  906 at Sun Apr 24 18:00:13 2022, MaxMem= 16106127360 cpu:             175.3 elap:               6.3
 (Enter /sw/contrib/gaussian/g16/B01/g16/l1002.exe)
 Minotr:  Closed shell wavefunction.
          Computing MP2/KS-MP2 derivatives.
          Using Z-Vector for PSCF gradient.
          Skipping F1 and S1 gradient terms here.
          IDoAtm=111111
          Frozen-core window.
          Direct CPHF calculation.
          Differentiating once with respect to electric field.
                with respect to dipole field.
          Differentiating once with respect to nuclear coordinates.
          Using symmetry in CPHF.
          Requested convergence is 1.0D-10 RMS, and 1.0D-09 maximum.
          NewPWx=F KeepS1=T KeepF1=T KeepIn=T MapXYZ=F SortEE=F KeepMc=T.
 Keep R1 ints in memory in symmetry-blocked form, NReq=217646936.
 FoFCou: FMM=F IPFlag=           0 FMFlag=           0 FMFlg1=           0
         NFxFlg=           0 DoJE=F BraDBF=F KetDBF=F FulRan=T
         wScrn=  0.000000 ICntrl=       600 IOpCl=  0 I1Cent=           0 NGrid=           0
         NMat0=    1 NMatS0=  17020 NMatT0=    0 NMatD0=    1 NMtDS0=    0 NMtDT0=    0
 Petite list used in FoFCou.
          MDV=   16106127360 using IRadAn=       5.
          Solving linear equations separately, MaxMat=       0.
          There are     1 degrees of freedom in the 1st order CPHF.  IDoFFX=0 NUNeed=     1.
 LinEq1:  Iter=  0 NonCon=     1 RMS=3.34D-03 Max=4.68D-02 NDo=     1
 AX will form     1 AO Fock derivatives at one time.
 LinEq1:  Iter=  1 NonCon=     1 RMS=4.24D-04 Max=4.52D-03 NDo=     1
 LinEq1:  Iter=  2 NonCon=     1 RMS=1.37D-04 Max=1.63D-03 NDo=     1
 LinEq1:  Iter=  3 NonCon=     1 RMS=4.15D-05 Max=3.43D-04 NDo=     1
 LinEq1:  Iter=  4 NonCon=     1 RMS=5.55D-06 Max=3.97D-05 NDo=     1
 LinEq1:  Iter=  5 NonCon=     1 RMS=1.09D-06 Max=8.15D-06 NDo=     1
 LinEq1:  Iter=  6 NonCon=     1 RMS=2.36D-07 Max=2.33D-06 NDo=     1
 LinEq1:  Iter=  7 NonCon=     1 RMS=1.04D-07 Max=1.16D-06 NDo=     1
 LinEq1:  Iter=  8 NonCon=     1 RMS=1.59D-08 Max=1.10D-07 NDo=     1
 LinEq1:  Iter=  9 NonCon=     1 RMS=2.78D-09 Max=2.38D-08 NDo=     1
 LinEq1:  Iter= 10 NonCon=     1 RMS=5.61D-10 Max=4.54D-09 NDo=     1
 LinEq1:  Iter= 11 NonCon=     0 RMS=7.51D-11 Max=6.52D-10 NDo=     1
 Linear equations converged to 1.000D-10 1.000D-09 after    11 iterations.
 End of Minotr F.D. properties file   721 does not exist.
 End of Minotr F.D. properties file   722 does not exist.
 End of Minotr F.D. properties file   788 does not exist.
 Leave Link 1002 at Sun Apr 24 18:00:16 2022, MaxMem= 16106127360 cpu:              35.6 elap:               2.5
 (Enter /sw/contrib/gaussian/g16/B01/g16/l601.exe)
 Copying SCF densities to generalized density rwf, IOpCl= 0 IROHF=0.

 **********************************************************************

            Population analysis using the SCF Density.

 **********************************************************************

 Orbital symmetries:
       Occupied  (A') (A') (A') (A') (A") (A') (A') (A') (A') (A")
       Virtual   (A') (A") (A') (A') (A') (A') (A') (A") (A") (A')
                 (A') (A") (A') (A') (A") (A') (A') (A") (A") (A')
                 (A') (A") (A') (A') (A') (A") (A') (A') (A") (A')
                 (A') (A") (A') (A') (A") (A") (A') (A') (A') (A")
                 (A') (A') (A") (A') (A") (A') (A") (A') (A') (A')
                 (A") (A') (A") (A') (A") (A") (A') (A') (A") (A")
                 (A') (A') (A') (A") (A') (A') (A") (A') (A") (A')
                 (A") (A') (A") (A') (A') (A") (A') (A') (A") (A')
                 (A') (A') (A") (A") (A') (A') (A") (A') (A') (A')
                 (A') (A") (A") (A') (A') (A") (A') (A") (A') (A')
                 (A") (A") (A') (A') (A") (A') (A') (A") (A') (A")
                 (A') (A") (A') (A') (A") (A') (A") (A') (A") (A')
                 (A") (A") (A') (A") (A') (A') (A") (A') (A') (A')
                 (A") (A') (A") (A") (A') (A") (A") (A') (A') (A')
                 (A") (A') (A') (A') (A') (A') (A") (A') (A") (A')
                 (A') (A') (A") (A') (A") (A") (A") (A') (A") (A')
                 (A') (A") (A') (A") (A') (A') (A') (A") (A') (A')
                 (A") (A') (A') (A')
 The electronic state is 1-A'.
 Alpha  occ. eigenvalues --  -20.59269 -20.53601  -1.37870  -1.32056  -0.74064
 Alpha  occ. eigenvalues --   -0.69283  -0.61398  -0.55849  -0.53082  -0.48081
 Alpha virt. eigenvalues --    0.02284   0.04555   0.04680   0.07630   0.12154
 Alpha virt. eigenvalues --    0.14234   0.16406   0.16958   0.17748   0.18669
 Alpha virt. eigenvalues --    0.21501   0.21872   0.23512   0.24360   0.27024
 Alpha virt. eigenvalues --    0.27196   0.29942   0.31305   0.36741   0.37068
 Alpha virt. eigenvalues --    0.37202   0.41218   0.41309   0.44119   0.44242
 Alpha virt. eigenvalues --    0.45607   0.48516   0.58064   0.59297   0.61081
 Alpha virt. eigenvalues --    0.67141   0.70729   0.71874   0.73062   0.75410
 Alpha virt. eigenvalues --    0.77698   0.78454   0.79422   0.82706   0.83075
 Alpha virt. eigenvalues --    0.85888   0.89169   0.90533   0.93232   0.94493
 Alpha virt. eigenvalues --    0.96129   0.96685   0.97227   0.98714   1.00022
 Alpha virt. eigenvalues --    1.01801   1.02298   1.03474   1.05247   1.07067
 Alpha virt. eigenvalues --    1.12536   1.15231   1.18553   1.18587   1.23147
 Alpha virt. eigenvalues --    1.23833   1.24363   1.29194   1.30660   1.38475
 Alpha virt. eigenvalues --    1.43400   1.48543   1.50705   1.56159   1.57364
 Alpha virt. eigenvalues --    1.63745   1.64798   1.70659   1.72695   1.81770
 Alpha virt. eigenvalues --    1.82718   1.94922   1.99553   2.05625   2.08971
 Alpha virt. eigenvalues --    2.13399   2.26057   2.30998   2.31664   2.32501
 Alpha virt. eigenvalues --    2.41579   2.44420   2.45923   2.47706   2.49059
 Alpha virt. eigenvalues --    2.50481   2.50609   2.56365   2.61077   2.66568
 Alpha virt. eigenvalues --    2.68997   2.74992   2.75344   2.78177   2.81953
 Alpha virt. eigenvalues --    2.85667   2.90869   2.92903   2.99447   3.01032
 Alpha virt. eigenvalues --    3.01699   3.74554   3.77604   3.78368   4.02810
 Alpha virt. eigenvalues --    4.07650   4.08542   4.18704   4.22842   4.23767
 Alpha virt. eigenvalues --    4.25377   4.27866   4.30612   4.33678   4.41057
 Alpha virt. eigenvalues --    4.41534   4.47168   4.47961   4.48065   4.49324
 Alpha virt. eigenvalues --    4.55258   4.60220   4.73272   4.74590   4.84544
 Alpha virt. eigenvalues --    4.88596   5.02901   5.10279   5.16526   5.17542
 Alpha virt. eigenvalues --    5.23315   5.27849   5.31020   5.35224   5.42377
 Alpha virt. eigenvalues --    5.58593   5.63730   5.73269   5.76342   6.23326
 Alpha virt. eigenvalues --    6.37010   6.51206   6.56637   6.78485   6.78646
 Alpha virt. eigenvalues --    6.91642   6.98558   7.15505   7.16322   7.27674
 Alpha virt. eigenvalues --    7.29902   7.30124   7.32421   7.35039   7.36448
 Alpha virt. eigenvalues --    7.38259   7.42530   7.45435   7.53532   7.58183
 Alpha virt. eigenvalues --    7.72690   7.91724   7.92561   8.00480   8.07532
 Alpha virt. eigenvalues --    8.86913   8.89577  15.78067  16.87640
          Condensed to atoms (all electrons):
               1          2          3          4          5          6
     1  O    7.993494   0.290120   0.239121  -0.017508   0.001379   0.001379
     2  H    0.290120   0.487202   0.029139  -0.003747  -0.000567  -0.000567
     3  H    0.239121   0.029139   0.451982  -0.029445  -0.001497  -0.001497
     4  O   -0.017508  -0.003747  -0.029445   7.949017   0.273526   0.273526
     5  H    0.001379  -0.000567  -0.001497   0.273526   0.485399   0.020389
     6  H    0.001379  -0.000567  -0.001497   0.273526   0.020389   0.485399
 Mulliken charges:
               1
     1  O   -0.507985
     2  H    0.198418
     3  H    0.312196
     4  O   -0.445369
     5  H    0.221370
     6  H    0.221370
 Sum of Mulliken charges =  -0.00000
 Mulliken charges with hydrogens summed into heavy atoms:
               1
     1  O    0.002629
     4  O   -0.002629
 Electronic spatial extent (au):  <R**2>=            190.4047
 Charge=             -0.0000 electrons
 Dipole moment (field-independent basis, Debye):
    X=             -0.0479    Y=             -2.7251    Z=             -0.0000  Tot=              2.7255
 Quadrupole moment (field-independent basis, Debye-Ang):
   XX=            -11.6322   YY=            -12.0963   ZZ=            -11.7605
   XY=              6.4730   XZ=              0.0000   YZ=              0.0000
 Traceless Quadrupole moment (field-independent basis, Debye-Ang):
   XX=              0.1975   YY=             -0.2666   ZZ=              0.0692
   XY=              6.4730   XZ=              0.0000   YZ=              0.0000
 Octapole moment (field-independent basis, Debye-Ang**2):
  XXX=              1.0216  YYY=             -8.9831  ZZZ=             -0.0000  XYY=              0.3871
  XXY=              1.1443  XXZ=             -0.0000  XZZ=             -1.3600  YZZ=             -6.2166
  YYZ=             -0.0000  XYZ=             -0.0000
 Hexadecapole moment (field-independent basis, Debye-Ang**3):
 XXXX=            -13.2992 YYYY=           -172.9982 ZZZZ=            -12.7143 XXXY=             -0.6929
 XXXZ=             -0.0000 YYYX=             18.1064 YYYZ=              0.0000 ZZZX=              0.0000
 ZZZY=             -0.0000 XXYY=            -26.3773 XXZZ=             -4.2537 YYZZ=            -27.7854
 XXYZ=              0.0000 YYXZ=              0.0000 ZZXY=              0.7498
 N-N= 3.658117163107D+01 E-N=-4.344216359842D+02  KE= 1.518981375472D+02
 Symmetry A'   KE= 1.438842929046D+02
 Symmetry A"   KE= 8.013844642592D+00
 No NMR shielding tensors so no spin-rotation constants.
 Leave Link  601 at Sun Apr 24 18:00:16 2022, MaxMem= 16106127360 cpu:               4.4 elap:               0.2
 (Enter /sw/contrib/gaussian/g16/B01/g16/l701.exe)
 ... and contract with generalized density number  2.
 Compute integral first derivatives.
 Leave Link  701 at Sun Apr 24 18:00:16 2022, MaxMem= 16106127360 cpu:               4.2 elap:               0.2
 (Enter /sw/contrib/gaussian/g16/B01/g16/l702.exe)
 L702 exits ... SP integral derivatives will be done elsewhere.
 Leave Link  702 at Sun Apr 24 18:00:16 2022, MaxMem= 16106127360 cpu:               1.7 elap:               0.1
 (Enter /sw/contrib/gaussian/g16/B01/g16/l703.exe)
 Integral derivatives from FoFJK, PRISM(SPDF).
 Compute integral first derivatives, UseDBF=F ICtDFT=           0.
 Calling FoFJK, ICntrl=  10002127 FMM=F ISym2X=1 I1Cent= 0 IOpClX= 0 NMat=1 NMatS=1 NMatT=0.
 FoFJK:  IHMeth= 1 ICntrl=10002127 DoSepK=F KAlg= 0 I1Cent=           0 FoldK=F
 IRaf=         0 NMat=       1 IRICut=       1 DoRegI=T DoRafI=F ISym2E= 1 IDoP0=0 IntGTp=1.
 FoFCou: FMM=F IPFlag=           0 FMFlag=      100000 FMFlg1=         800
         NFxFlg=           0 DoJE=F BraDBF=F KetDBF=F FulRan=T
         wScrn=  0.000000 ICntrl=  10002127 IOpCl=  0 I1Cent=           0 NGrid=           0
         NMat0=    1 NMatS0=      1 NMatT0=    0 NMatD0=    1 NMtDS0=    0 NMtDT0=    0
 Petite list used in FoFCou.
 Leave Link  703 at Sun Apr 24 18:00:17 2022, MaxMem= 16106127360 cpu:              20.6 elap:               0.8
 (Enter /sw/contrib/gaussian/g16/B01/g16/l716.exe)
 Dipole        =-2.11210021D-02-1.03062104D+00-4.44089210D-16
 ***** Axes restored to original set *****
 -------------------------------------------------------------------
 Center     Atomic                   Forces (Hartrees/Bohr)
 Number     Number              X              Y              Z
 -------------------------------------------------------------------
      1        8           0.000021138   -0.000000000   -0.000017479
      2        1           0.000000419    0.000000000    0.000011542
      3        1          -0.000019516   -0.000000000    0.000004874
      4        8           0.000007525   -0.000000000   -0.000037012
      5        1          -0.000004783    0.000028519    0.000019038
      6        1          -0.000004783   -0.000028519    0.000019038
 -------------------------------------------------------------------
 Cartesian Forces:  Max     0.000037012 RMS     0.000016856
 Leave Link  716 at Sun Apr 24 18:00:17 2022, MaxMem= 16106127360 cpu:               0.8 elap:               0.1
 (Enter /sw/contrib/gaussian/g16/B01/g16/l103.exe)

 GradGradGradGradGradGradGradGradGradGradGradGradGradGradGradGradGradGrad
 Berny optimization.
 FormGI is forming the generalized inverse of G from B-inverse, IUseBI=4.
 Internal  Forces:  Max     0.000034566 RMS     0.000014728
 Search for a local minimum.
 Step number   1 out of a maximum of   24
 All quantities printed in internal units (Hartrees-Bohrs-Radians)
 RMS Force = .14728D-04 SwitMx=.10000D-02 MixMth= 2
 Mixed Optimization -- En-DIIS/RFO-DIIS
 Second derivative matrix not updated -- first step.
 The second derivative matrix:
                          R1        R2        R3        R4        R5
           R1           0.55387
           R2           0.00000   0.53664
           R3           0.00000   0.00000   0.04719
           R4           0.00000   0.00000   0.00000   0.54982
           R5           0.00000   0.00000   0.00000   0.00000   0.54982
           A1           0.00000   0.00000   0.00000   0.00000   0.00000
           A2           0.00000   0.00000   0.00000   0.00000   0.00000
           A3           0.00000   0.00000   0.00000   0.00000   0.00000
           A4           0.00000   0.00000   0.00000   0.00000   0.00000
           A5           0.00000   0.00000   0.00000   0.00000   0.00000
           A6           0.00000   0.00000   0.00000   0.00000   0.00000
           D1           0.00000   0.00000   0.00000   0.00000   0.00000
           D2           0.00000   0.00000   0.00000   0.00000   0.00000
           D3           0.00000   0.00000   0.00000   0.00000   0.00000
                          A1        A2        A3        A4        A5
           A1           0.16000
           A2           0.00000   0.16000
           A3           0.00000   0.00000   0.16000
           A4           0.00000   0.00000   0.00000   0.16000
           A5           0.00000   0.00000   0.00000   0.00000   0.00230
           A6           0.00000   0.00000   0.00000   0.00000   0.00000
           D1           0.00000   0.00000   0.00000   0.00000   0.00000
           D2           0.00000   0.00000   0.00000   0.00000   0.00000
           D3           0.00000   0.00000   0.00000   0.00000   0.00000
                          A6        D1        D2        D3
           A6           0.00230
           D1           0.00000   0.00230
           D2           0.00000   0.00000   0.00230
           D3           0.00000   0.00000   0.00000   0.01527
 ITU=  0
     Eigenvalues ---    0.00230   0.00230   0.00230   0.04719   0.04989
     Eigenvalues ---    0.12854   0.16000   0.16000   0.53662   0.54982
     Eigenvalues ---    0.54982   0.55387
 RFO step:  Lambda= 0.00000000D+00 EMin= 2.30000000D-03
 Linear search not attempted -- first point.
 Iteration  1 RMS(Cart)=  0.00004799 RMS(Int)=  0.00000000
 Iteration  2 RMS(Cart)=  0.00000000 RMS(Int)=  0.00000000
 ITry= 1 IFail=0 DXMaxC= 9.52D-05 DCOld= 1.00D+10 DXMaxT= 3.00D-01 DXLimC= 3.00D+00 Rises=F
 ClnCor:  largest displacement from symmetrization is 1.46D-06 for atom     6.
 Variable       Old X    -DE/DX   Delta X   Delta X   Delta X     New X
                                 (Linear)    (Quad)   (Total)
    R1        1.81489   0.00001   0.00000   0.00002   0.00002   1.81491
    R2        1.83039  -0.00002   0.00000  -0.00004  -0.00004   1.83035
    R3        3.67644  -0.00000   0.00000  -0.00005  -0.00005   3.67639
    R4        1.81848  -0.00003   0.00000  -0.00006  -0.00006   1.81842
    R5        1.81848  -0.00003   0.00000  -0.00006  -0.00006   1.81842
    A1        1.82355  -0.00000   0.00000  -0.00000  -0.00000   1.82355
    A2        1.94012   0.00000   0.00000  -0.00000  -0.00000   1.94012
    A3        1.94012   0.00000   0.00000  -0.00000  -0.00000   1.94012
    A4        1.82445  -0.00000   0.00000  -0.00002  -0.00002   1.82443
    A5        3.28652  -0.00000   0.00000  -0.00005  -0.00005   3.28647
    A6        3.14159  -0.00000   0.00000  -0.00000   0.00000   3.14159
    D1        2.14442   0.00000   0.00000   0.00001   0.00001   2.14443
    D2       -2.14442  -0.00000   0.00000  -0.00001  -0.00001  -2.14443
    D3        2.09467  -0.00000   0.00000  -0.00002  -0.00002   2.09465
         Item               Value     Threshold  Converged?
 Maximum Force            0.000035     0.000002     NO 
 RMS     Force            0.000015     0.000001     NO 
 Maximum Displacement     0.000095     0.000006     NO 
 RMS     Displacement     0.000048     0.000004     NO 
 Predicted change in Energy=-2.863117D-09
 Lowest energy point so far.  Saving SCF results.
 GradGradGradGradGradGradGradGradGradGradGradGradGradGradGradGradGradGrad

 Leave Link  103 at Sun Apr 24 18:00:17 2022, MaxMem= 16106127360 cpu:               1.2 elap:               0.1
 (Enter /sw/contrib/gaussian/g16/B01/g16/l202.exe)
                          Input orientation:                          
 ---------------------------------------------------------------------
 Center     Atomic      Atomic             Coordinates (Angstroms)
 Number     Number       Type             X           Y           Z
 ---------------------------------------------------------------------
      1          8           0        0.000017    0.000000   -0.000015
      2          1           0        0.000050   -0.000000    0.960396
      3          1           0        0.937812   -0.000000   -0.242261
      4          8           0        2.731463   -0.000000   -0.995679
      5          1           0        2.867558   -0.761018   -1.568642
      6          1           0        2.867558    0.761018   -1.568642
 ---------------------------------------------------------------------
                    Distance matrix (angstroms):
                    1          2          3          4          5
     1  O    0.000000
     2  H    0.960411   0.000000
     3  H    0.968578   1.525051   0.000000
     4  O    2.907257   3.359590   1.945462   0.000000
     5  H    3.355969   3.898433   2.462185   0.962267   0.000000
     6  H    3.355969   3.898433   2.462185   0.962267   1.522037
                    6
     6  H    0.000000
 Stoichiometry    H4O2
 Framework group  CS[SG(H2O2),X(H2)]
 Deg. of freedom     8
 Full point group                 CS      NOp   2
 RotChk:  IX=0 Diff= 5.78D-06
 Largest Abelian subgroup         CS      NOp   2
 Largest concise Abelian subgroup CS      NOp   2
                         Standard orientation:                         
 ---------------------------------------------------------------------
 Center     Atomic      Atomic             Coordinates (Angstroms)
 Number     Number       Type             X           Y           Z
 ---------------------------------------------------------------------
      1          8           0       -0.000625    1.517796   -0.000000
      2          1           0        0.901718    1.846681   -0.000000
      3          1           0        0.092949    0.553749   -0.000000
      4          8           0       -0.000625   -1.389461    0.000000
      5          1           0       -0.492330   -1.713552    0.761018
      6          1           0       -0.492330   -1.713552   -0.761018
 ---------------------------------------------------------------------
 Rotational constants (GHZ):         216.9237791           6.4232383           6.4228326
 Leave Link  202 at Sun Apr 24 18:00:17 2022, MaxMem= 16106127360 cpu:               0.5 elap:               0.0
 (Enter /sw/contrib/gaussian/g16/B01/g16/l301.exe)
 Standard basis: Aug-CC-pVTZ (5D, 7F)
 Ernie: Thresh=  0.10000D-02 Tol=  0.10000D-05 Strict=F.
 Ernie:  6 primitive shells out of 104 were deleted.
 There are   135 symmetry adapted cartesian basis functions of A'  symmetry.
 There are    75 symmetry adapted cartesian basis functions of A"  symmetry.
 There are   115 symmetry adapted basis functions of A'  symmetry.
 There are    69 symmetry adapted basis functions of A"  symmetry.
   184 basis functions,   252 primitive gaussians,   210 cartesian basis functions
    10 alpha electrons       10 beta electrons
       nuclear repulsion energy        36.5818236404 Hartrees.
 IExCor=    0 DFT=F Ex=HF Corr=None ExCW=0 ScaHFX=  1.000000
 ScaDFX=  1.000000  1.000000  1.000000  1.000000 ScalE2=  1.000000  1.000000
 IRadAn=      5 IRanWt=     -1 IRanGd=            0 ICorTp=0 IEmpDi=  4
 NAtoms=    6 NActive=    6 NUniq=    5 SFac= 1.44D+00 NAtFMM=   60 NAOKFM=F Big=F
 Integral buffers will be    131072 words long.
 Raffenetti 1 integral format.
 Two-electron integral symmetry is turned on.
 Leave Link  301 at Sun Apr 24 18:00:18 2022, MaxMem= 16106127360 cpu:               2.5 elap:               0.1
 (Enter /sw/contrib/gaussian/g16/B01/g16/l302.exe)
 NPDir=0 NMtPBC=     1 NCelOv=     1 NCel=       1 NClECP=     1 NCelD=      1
         NCelK=      1 NCelE2=     1 NClLst=     1 CellRange=     0.0.
 One-electron integrals computed using PRISM.
 One-electron integral symmetry used in STVInt
 NBasis=   184 RedAO= T EigKep=  2.30D-04  NBF=   115    69
 NBsUse=   184 1.00D-06 EigRej= -1.00D+00 NBFU=   115    69
 Leave Link  302 at Sun Apr 24 18:00:18 2022, MaxMem= 16106127360 cpu:               5.1 elap:               0.2
 (Enter /sw/contrib/gaussian/g16/B01/g16/l303.exe)
 DipDrv:  MaxL=1.
 Leave Link  303 at Sun Apr 24 18:00:18 2022, MaxMem= 16106127360 cpu:               1.2 elap:               0.1
 (Enter /sw/contrib/gaussian/g16/B01/g16/l401.exe)
 Initial guess from the checkpoint file:  "/gscratch/ilahie/abmccoy/ch4/hoh_2_v2/hoh_2.chk"
 B after Tr=    -0.000000    0.000000   -0.000000
         Rot=    1.000000    0.000000    0.000000    0.000001 Ang=   0.00 deg.
 Guess basis will be translated and rotated to current coordinates.
 JPrj=2 DoOrth=T DoCkMO=T.
 Initial guess orbital symmetries:
       Occupied  (A') (A') (A') (A') (A") (A') (A') (A') (A') (A")
       Virtual   (A') (A") (A') (A') (A') (A') (A') (A") (A") (A')
                 (A') (A") (A') (A') (A") (A') (A') (A") (A") (A')
                 (A') (A") (A') (A') (A') (A") (A') (A') (A") (A')
                 (A') (A") (A') (A') (A") (A") (A') (A') (A') (A")
                 (A') (A') (A") (A') (A") (A') (A") (A') (A') (A')
                 (A") (A') (A") (A') (A") (A") (A') (A') (A") (A")
                 (A') (A') (A') (A") (A') (A') (A") (A') (A") (A')
                 (A") (A') (A") (A') (A') (A") (A') (A') (A") (A')
                 (A') (A') (A") (A") (A') (A') (A") (A') (A') (A')
                 (A') (A") (A") (A') (A') (A") (A') (A") (A') (A')
                 (A") (A") (A') (A') (A") (A') (A') (A") (A') (A")
                 (A') (A") (A') (A') (A") (A') (A") (A') (A") (A')
                 (A") (A") (A') (A") (A') (A') (A") (A') (A') (A')
                 (A") (A') (A") (A") (A') (A") (A") (A') (A') (A')
                 (A") (A') (A') (A') (A') (A') (A") (A') (A") (A')
                 (A') (A') (A") (A') (A") (A") (A") (A') (A") (A')
                 (A') (A") (A') (A") (A') (A') (A') (A") (A') (A')
                 (A") (A') (A') (A')
 The electronic state of the initial guess is 1-A'.
 Leave Link  401 at Sun Apr 24 18:00:18 2022, MaxMem= 16106127360 cpu:               3.7 elap:               0.2
 (Enter /sw/contrib/gaussian/g16/B01/g16/l502.exe)
 Keep R1 ints in memory in symmetry-blocked form, NReq=217645672.
 FoFCou: FMM=F IPFlag=           0 FMFlag=           0 FMFlg1=           0
         NFxFlg=           0 DoJE=F BraDBF=F KetDBF=F FulRan=T
         wScrn=  0.000000 ICntrl=       600 IOpCl=  0 I1Cent=           0 NGrid=           0
         NMat0=    1 NMatS0=  17020 NMatT0=    0 NMatD0=    1 NMtDS0=    0 NMtDT0=    0
 Petite list used in FoFCou.
 Closed shell SCF:
 Using DIIS extrapolation, IDIIS=  1040.
 NGot= 16106127360 LenX= 16033235579 LenY= 16033191038
 Requested convergence on RMS density matrix=1.00D-08 within 128 cycles.
 Requested convergence on MAX density matrix=1.00D-06.
 Requested convergence on             energy=1.00D-06.
 No special actions if energy rises.

 Cycle   1  Pass 1  IDiag  1:
 E= -152.126113008567    
 DIIS: error= 2.89D-06 at cycle   1 NSaved=   1.
 NSaved= 1 IEnMin= 1 EnMin= -152.126113008567     IErMin= 1 ErrMin= 2.89D-06
 ErrMax= 2.89D-06  0.00D+00 EMaxC= 1.00D-01 BMatC= 1.59D-09 BMatP= 1.59D-09
 IDIUse=1 WtCom= 1.00D+00 WtEn= 0.00D+00
 Coeff-Com:  0.100D+01
 Coeff:      0.100D+01
 Gap=     0.504 Goal=   None    Shift=    0.000
 RMSDP=2.34D-07 MaxDP=8.47D-06              OVMax= 7.74D-06

 Cycle   2  Pass 1  IDiag  1:
 E= -152.126113009622     Delta-E=       -0.000000001056 Rises=F Damp=F
 DIIS: error= 1.02D-06 at cycle   2 NSaved=   2.
 NSaved= 2 IEnMin= 2 EnMin= -152.126113009622     IErMin= 2 ErrMin= 1.02D-06
 ErrMax= 1.02D-06  0.00D+00 EMaxC= 1.00D-01 BMatC= 1.01D-10 BMatP= 1.59D-09
 IDIUse=1 WtCom= 1.00D+00 WtEn= 0.00D+00
 Coeff-Com:  0.161D-01 0.984D+00
 Coeff:      0.161D-01 0.984D+00
 Gap=     0.504 Goal=   None    Shift=    0.000
 RMSDP=4.48D-08 MaxDP=1.84D-06 DE=-1.06D-09 OVMax= 3.13D-06

 Cycle   3  Pass 1  IDiag  1:
 E= -152.126113009693     Delta-E=       -0.000000000071 Rises=F Damp=F
 DIIS: error= 4.44D-07 at cycle   3 NSaved=   3.
 NSaved= 3 IEnMin= 3 EnMin= -152.126113009693     IErMin= 3 ErrMin= 4.44D-07
 ErrMax= 4.44D-07  0.00D+00 EMaxC= 1.00D-01 BMatC= 2.46D-11 BMatP= 1.01D-10
 IDIUse=1 WtCom= 1.00D+00 WtEn= 0.00D+00
 Coeff-Com: -0.532D-01 0.294D+00 0.759D+00
 Coeff:     -0.532D-01 0.294D+00 0.759D+00
 Gap=     0.504 Goal=   None    Shift=    0.000
 RMSDP=1.45D-08 MaxDP=4.87D-07 DE=-7.07D-11 OVMax= 1.40D-06

 Cycle   4  Pass 1  IDiag  1:
 E= -152.126113009712     Delta-E=       -0.000000000019 Rises=F Damp=F
 DIIS: error= 9.52D-08 at cycle   4 NSaved=   4.
 NSaved= 4 IEnMin= 4 EnMin= -152.126113009712     IErMin= 4 ErrMin= 9.52D-08
 ErrMax= 9.52D-08  0.00D+00 EMaxC= 1.00D-01 BMatC= 9.27D-13 BMatP= 2.46D-11
 IDIUse=1 WtCom= 1.00D+00 WtEn= 0.00D+00
 Coeff-Com:  0.119D-02-0.797D-01-0.284D-01 0.111D+01
 Coeff:      0.119D-02-0.797D-01-0.284D-01 0.111D+01
 Gap=     0.504 Goal=   None    Shift=    0.000
 RMSDP=5.39D-09 MaxDP=1.37D-07 DE=-1.86D-11 OVMax= 5.10D-07

 SCF Done:  E(RHF) =  -152.126113010     A.U. after    4 cycles
            NFock=  4  Conv=0.54D-08     -V/T= 2.0015
 KE= 1.518982958939D+02 PE=-4.344230069191D+02 EE= 9.381677437516D+01
 Leave Link  502 at Sun Apr 24 18:00:19 2022, MaxMem= 16106127360 cpu:              28.5 elap:               1.3
 (Enter /sw/contrib/gaussian/g16/B01/g16/l801.exe)
 ExpMin= 2.53D-02 ExpMax= 1.53D+04 ExpMxC= 5.22D+02 IAcc=3 IRadAn=         5 AccDes= 0.00D+00
 HarFok:  IExCor=  205 AccDes= 0.00D+00 IRadAn=         5 IDoV=-2 UseB2=F ITyADJ=14
 ICtDFT= 12500011 ScaDFX=  1.000000  1.000000  1.000000  1.000000
 DSYEVD-2 returned Info=          93 IAlg= 4 N=    46 NDim=    46 NE2=   350130881 trying  DSYEV.
 Largest valence mixing into a core orbital is  1.11D-04
 Largest core mixing into a valence orbital is  1.74D-05
 Range of M.O.s used for correlation:     3   184
 NBasis=   184 NAE=    10 NBE=    10 NFC=     2 NFV=     0
 NROrb=    182 NOA=     8 NOB=     8 NVA=   174 NVB=   174

 **** Warning!!: The largest alpha MO coefficient is  0.20116947D+02

 Leave Link  801 at Sun Apr 24 18:00:19 2022, MaxMem= 16106127360 cpu:               1.5 elap:               0.1
 (Enter /sw/contrib/gaussian/g16/B01/g16/l906.exe)
 Frozen-core derivative calculation, NFC=   2 NFV=   0.
 FulOut=F Deriv=T AODrv=T NAtomX=     6
   MMem=         151  MDisk=           8 MDiskD=           8
  W3Min=      386400 MinDsk=      868055 NBas6D=         210
 NBas2D=       22605    NTT=       22155    LW2=     3500000
    MDV= 16105707041 MDiskM=      383421 NBas2p=       17942
 Fully direct method using O(ONN) memory.
 IMap=   1   2   3   4   5   6   7   8   9  10
 JobTyp=1 Pass  1:  I=   3 to  10 NPSUse= 28 ParTrn=T ParDer=T DoDerP=T.
 Spin components of T(2) and E(2):
     alpha-alpha T2 =       0.1647402813D-01 E2=     -0.6592309881D-01
     alpha-beta  T2 =       0.9465163612D-01 E2=     -0.4082815719D+00
     beta-beta   T2 =       0.1647402813D-01 E2=     -0.6592309881D-01
 The integrals were generated   1 times.
 ANorm=    0.1061884971D+01
 E2 =    -0.5401277696D+00 EUMP2 =    -0.15266624077926D+03
 Leave Link  906 at Sun Apr 24 18:00:26 2022, MaxMem= 16106127360 cpu:             174.9 elap:               6.3
 (Enter /sw/contrib/gaussian/g16/B01/g16/l1002.exe)
 Minotr:  Closed shell wavefunction.
          Computing MP2/KS-MP2 derivatives.
          Using Z-Vector for PSCF gradient.
          Skipping F1 and S1 gradient terms here.
          IDoAtm=111111
          Frozen-core window.
          Direct CPHF calculation.
          Differentiating once with respect to electric field.
                with respect to dipole field.
          Differentiating once with respect to nuclear coordinates.
          Using symmetry in CPHF.
          Requested convergence is 1.0D-10 RMS, and 1.0D-09 maximum.
          NewPWx=F KeepS1=T KeepF1=T KeepIn=T MapXYZ=F SortEE=F KeepMc=T.
 Keep R1 ints in memory in symmetry-blocked form, NReq=217646936.
 FoFCou: FMM=F IPFlag=           0 FMFlag=           0 FMFlg1=           0
         NFxFlg=           0 DoJE=F BraDBF=F KetDBF=F FulRan=T
         wScrn=  0.000000 ICntrl=       600 IOpCl=  0 I1Cent=           0 NGrid=           0
         NMat0=    1 NMatS0=  17020 NMatT0=    0 NMatD0=    1 NMtDS0=    0 NMtDT0=    0
 Petite list used in FoFCou.
          MDV=   16106127360 using IRadAn=       5.
          Solving linear equations separately, MaxMat=       0.
          There are     1 degrees of freedom in the 1st order CPHF.  IDoFFX=0 NUNeed=     1.
 LinEq1:  Iter=  0 NonCon=     1 RMS=3.34D-03 Max=4.68D-02 NDo=     1
 AX will form     1 AO Fock derivatives at one time.
 LinEq1:  Iter=  1 NonCon=     1 RMS=4.24D-04 Max=4.52D-03 NDo=     1
 LinEq1:  Iter=  2 NonCon=     1 RMS=1.37D-04 Max=1.63D-03 NDo=     1
 LinEq1:  Iter=  3 NonCon=     1 RMS=4.14D-05 Max=3.43D-04 NDo=     1
 LinEq1:  Iter=  4 NonCon=     1 RMS=5.55D-06 Max=3.97D-05 NDo=     1
 LinEq1:  Iter=  5 NonCon=     1 RMS=1.09D-06 Max=8.15D-06 NDo=     1
 LinEq1:  Iter=  6 NonCon=     1 RMS=2.36D-07 Max=2.33D-06 NDo=     1
 LinEq1:  Iter=  7 NonCon=     1 RMS=1.04D-07 Max=1.17D-06 NDo=     1
 LinEq1:  Iter=  8 NonCon=     1 RMS=1.59D-08 Max=1.10D-07 NDo=     1
 LinEq1:  Iter=  9 NonCon=     1 RMS=2.78D-09 Max=2.38D-08 NDo=     1
 LinEq1:  Iter= 10 NonCon=     1 RMS=5.61D-10 Max=4.54D-09 NDo=     1
 LinEq1:  Iter= 11 NonCon=     0 RMS=7.51D-11 Max=6.52D-10 NDo=     1
 Linear equations converged to 1.000D-10 1.000D-09 after    11 iterations.
 End of Minotr F.D. properties file   721 does not exist.
 End of Minotr F.D. properties file   722 does not exist.
 End of Minotr F.D. properties file   788 does not exist.
 Leave Link 1002 at Sun Apr 24 18:00:28 2022, MaxMem= 16106127360 cpu:              35.5 elap:               2.6
 (Enter /sw/contrib/gaussian/g16/B01/g16/l701.exe)
 ... and contract with generalized density number  2.
 Compute integral first derivatives.
 Leave Link  701 at Sun Apr 24 18:00:29 2022, MaxMem= 16106127360 cpu:               5.1 elap:               0.2
 (Enter /sw/contrib/gaussian/g16/B01/g16/l702.exe)
 L702 exits ... SP integral derivatives will be done elsewhere.
 Leave Link  702 at Sun Apr 24 18:00:29 2022, MaxMem= 16106127360 cpu:               0.5 elap:               0.0
 (Enter /sw/contrib/gaussian/g16/B01/g16/l703.exe)
 Integral derivatives from FoFJK, PRISM(SPDF).
 Compute integral first derivatives, UseDBF=F ICtDFT=           0.
 Calling FoFJK, ICntrl=  10002127 FMM=F ISym2X=1 I1Cent= 0 IOpClX= 0 NMat=1 NMatS=1 NMatT=0.
 FoFJK:  IHMeth= 1 ICntrl=10002127 DoSepK=F KAlg= 0 I1Cent=           0 FoldK=F
 IRaf=         0 NMat=       1 IRICut=       1 DoRegI=T DoRafI=F ISym2E= 1 IDoP0=0 IntGTp=1.
 FoFCou: FMM=F IPFlag=           0 FMFlag=      100000 FMFlg1=         800
         NFxFlg=           0 DoJE=F BraDBF=F KetDBF=F FulRan=T
         wScrn=  0.000000 ICntrl=  10002127 IOpCl=  0 I1Cent=           0 NGrid=           0
         NMat0=    1 NMatS0=      1 NMatT0=    0 NMatD0=    1 NMtDS0=    0 NMtDT0=    0
 Petite list used in FoFCou.
 Leave Link  703 at Sun Apr 24 18:00:29 2022, MaxMem= 16106127360 cpu:              20.6 elap:               0.8
 (Enter /sw/contrib/gaussian/g16/B01/g16/l716.exe)
 Dipole        =-2.11233369D-02-1.03063231D+00-4.44089210D-16
 ***** Axes restored to original set *****
 -------------------------------------------------------------------
 Center     Atomic                   Forces (Hartrees/Bohr)
 Number     Number              X              Y              Z
 -------------------------------------------------------------------
      1        8           0.000000406   -0.000000000   -0.000000100
      2        1          -0.000000188   -0.000000000   -0.000000076
      3        1           0.000000903   -0.000000000   -0.000000211
      4        8          -0.000000162    0.000000000   -0.000003020
      5        1          -0.000000480   -0.000001042    0.000001703
      6        1          -0.000000480    0.000001042    0.000001703
 -------------------------------------------------------------------
 Cartesian Forces:  Max     0.000003020 RMS     0.000001018
 Leave Link  716 at Sun Apr 24 18:00:29 2022, MaxMem= 16106127360 cpu:               1.5 elap:               0.1
 (Enter /sw/contrib/gaussian/g16/B01/g16/l103.exe)

 GradGradGradGradGradGradGradGradGradGradGradGradGradGradGradGradGradGrad
 Berny optimization.
 Using GEDIIS/GDIIS optimizer.
 FormGI is forming the generalized inverse of G from B-inverse, IUseBI=4.
 Internal  Forces:  Max     0.000002396 RMS     0.000000887
 Search for a local minimum.
 Step number   2 out of a maximum of   24
 All quantities printed in internal units (Hartrees-Bohrs-Radians)
 RMS Force = .88669D-06 SwitMx=.10000D-02 MixMth= 2
 Mixed Optimization -- En-DIIS/RFO-DIIS
 Swapping is turned off.
 Update second derivatives using D2CorX and points    1    2
 DE= -4.62D-09 DEPred=-2.86D-09 R= 1.61D+00
 Trust test= 1.61D+00 RLast= 1.27D-04 DXMaxT set to 3.00D-01
 The second derivative matrix:
                          R1        R2        R3        R4        R5
           R1           0.55420
           R2           0.00013   0.53494
           R3           0.00238  -0.00468   0.04649
           R4           0.00028  -0.00279  -0.00728   0.54525
           R5           0.00028  -0.00279  -0.00728  -0.00456   0.54525
           A1          -0.00068   0.00125  -0.00010   0.00193   0.00193
           A2           0.00282  -0.00538  -0.00034  -0.00836  -0.00836
           A3           0.00358  -0.00684  -0.00041  -0.01061  -0.01061
           A4          -0.00232   0.00420  -0.00052   0.00649   0.00649
           A5          -0.00183   0.00347   0.00015   0.00538   0.00538
           A6          -0.00000   0.00000   0.00000   0.00000   0.00000
           D1           0.00390  -0.00742  -0.00036  -0.01151  -0.01151
           D2          -0.00390   0.00742   0.00036   0.01151   0.01151
           D3          -0.00062   0.00116   0.00000   0.00179   0.00179
                          A1        A2        A3        A4        A5
           A1           0.16011
           A2          -0.00024   0.16016
           A3          -0.00032   0.00023   0.16032
           A4           0.00042  -0.00106  -0.00137   0.16161
           A5           0.00018  -0.00019  -0.00026   0.00076   0.00248
           A6           0.00000  -0.00000  -0.00000   0.00000   0.00000
           D1          -0.00037   0.00035   0.00048  -0.00157  -0.00035
           D2           0.00037  -0.00035  -0.00048   0.00157   0.00035
           D3           0.00007  -0.00012  -0.00016   0.00030   0.00010
                          A6        D1        D2        D3
           A6           0.00230
           D1          -0.00000   0.00296
           D2           0.00000  -0.00066   0.00296
           D3           0.00000  -0.00019   0.00019   0.01531
 ITU=  0  0
     Eigenvalues ---    0.00230   0.00230   0.00232   0.04622   0.05042
     Eigenvalues ---    0.13015   0.15997   0.16040   0.53412   0.54374
     Eigenvalues ---    0.54982   0.55431
 En-DIIS/RFO-DIIS/Sim-DIIS IScMMF=       -3 using points:     2    1
 RFO step:  Lambda=-7.64499723D-11.
 NNeg= 0 NGDIIS= 2 SimSw=  2.50D-03 Rises=F DC= -4.62D-09 SmlDif=  1.00D-05
 NRisDI= 0 DoIntr=F SqrtH=F CThrHd= 10.0 CDAdj=  3.0
 RMS Error=  0.6005884423D-04 NUsed= 2 OKEnD=F EnDIS=F
 InvSVX:  RCond= 1.82D-08 Info=           0 Equed=N FErr=  8.96D-15 BErr=  2.66D-17
 DIIS inversion failure, remove point   2.
 Use linear search instead of GDIIS.
 RFO step:  Lambda= 0.00000000D+00 EMin= 2.30000000D-03
 Quartic linear search produced a step of -0.00052.
 Iteration  1 RMS(Cart)=  0.00009089 RMS(Int)=  0.00000001
 Iteration  2 RMS(Cart)=  0.00000001 RMS(Int)=  0.00000000
 ITry= 1 IFail=0 DXMaxC= 2.00D-04 DCOld= 1.00D+10 DXMaxT= 3.00D-01 DXLimC= 3.00D+00 Rises=F
 ClnCor:  largest displacement from symmetrization is 9.18D-07 for atom     6.
 Variable       Old X    -DE/DX   Delta X   Delta X   Delta X     New X
                                 (Linear)    (Quad)   (Total)
    R1        1.81491  -0.00000  -0.00000   0.00000   0.00000   1.81491
    R2        1.83035  -0.00000   0.00000  -0.00000  -0.00000   1.83034
    R3        3.67639  -0.00000   0.00000  -0.00003  -0.00003   3.67636
    R4        1.81842  -0.00000   0.00000  -0.00000  -0.00000   1.81842
    R5        1.81842  -0.00000   0.00000  -0.00000  -0.00000   1.81842
    A1        1.82355   0.00000   0.00000   0.00000   0.00000   1.82355
    A2        1.94012  -0.00000   0.00000  -0.00000  -0.00000   1.94012
    A3        1.94012  -0.00000   0.00000  -0.00000  -0.00000   1.94012
    A4        1.82443   0.00000   0.00000   0.00002   0.00002   1.82445
    A5        3.28647   0.00000   0.00000   0.00021   0.00021   3.28669
    A6        3.14159  -0.00000   0.00000  -0.00000   0.00000   3.14159
    D1        2.14443  -0.00000  -0.00000   0.00001   0.00001   2.14444
    D2       -2.14443   0.00000   0.00000  -0.00001  -0.00001  -2.14444
    D3        2.09465   0.00000   0.00000   0.00001   0.00001   2.09466
         Item               Value     Threshold  Converged?
 Maximum Force            0.000002     0.000002     NO 
 RMS     Force            0.000001     0.000001     YES
 Maximum Displacement     0.000200     0.000006     NO 
 RMS     Displacement     0.000091     0.000004     NO 
 Predicted change in Energy=-1.134927D-10
 Lowest energy point so far.  Saving SCF results.
 GradGradGradGradGradGradGradGradGradGradGradGradGradGradGradGradGradGrad

 Leave Link  103 at Sun Apr 24 18:00:30 2022, MaxMem= 16106127360 cpu:               2.2 elap:               0.1
 (Enter /sw/contrib/gaussian/g16/B01/g16/l202.exe)
                          Input orientation:                          
 ---------------------------------------------------------------------
 Center     Atomic      Atomic             Coordinates (Angstroms)
 Number     Number       Type             X           Y           Z
 ---------------------------------------------------------------------
      1          8           0        0.000064    0.000000   -0.000043
      2          1           0       -0.000041   -0.000000    0.960368
      3          1           0        0.937893   -0.000000   -0.242155
      4          8           0        2.731477   -0.000000   -0.995696
      5          1           0        2.867532   -0.761023   -1.568659
      6          1           0        2.867532    0.761023   -1.568659
 ---------------------------------------------------------------------
                    Distance matrix (angstroms):
                    1          2          3          4          5
     1  O    0.000000
     2  H    0.960411   0.000000
     3  H    0.968577   1.525052   0.000000
     4  O    2.907222   3.359669   1.945447   0.000000
     5  H    3.355903   3.898475   2.462169   0.962265   0.000000
     6  H    3.355903   3.898475   2.462169   0.962265   1.522047
                    6
     6  H    0.000000
 Stoichiometry    H4O2
 Framework group  CS[SG(H2O2),X(H2)]
 Deg. of freedom     8
 Full point group                 CS      NOp   2
 RotChk:  IX=0 Diff= 2.74D-07
 Largest Abelian subgroup         CS      NOp   2
 Largest concise Abelian subgroup CS      NOp   2
                         Standard orientation:                         
 ---------------------------------------------------------------------
 Center     Atomic      Atomic             Coordinates (Angstroms)
 Number     Number       Type             X           Y           Z
 ---------------------------------------------------------------------
      1          8           0       -0.000629    1.517767    0.000000
      2          1           0        0.901667    1.846783    0.000000
      3          1           0        0.093084    0.553734    0.000000
      4          8           0       -0.000629   -1.389455   -0.000000
      5          1           0       -0.492346   -1.713508    0.761023
      6          1           0       -0.492346   -1.713508   -0.761023
 ---------------------------------------------------------------------
 Rotational constants (GHZ):         216.9264454           6.4233742           6.4229636
 Leave Link  202 at Sun Apr 24 18:00:30 2022, MaxMem= 16106127360 cpu:               0.4 elap:               0.0
 (Enter /sw/contrib/gaussian/g16/B01/g16/l301.exe)
 Standard basis: Aug-CC-pVTZ (5D, 7F)
 Ernie: Thresh=  0.10000D-02 Tol=  0.10000D-05 Strict=F.
 Ernie:  6 primitive shells out of 104 were deleted.
 There are   135 symmetry adapted cartesian basis functions of A'  symmetry.
 There are    75 symmetry adapted cartesian basis functions of A"  symmetry.
 There are   115 symmetry adapted basis functions of A'  symmetry.
 There are    69 symmetry adapted basis functions of A"  symmetry.
   184 basis functions,   252 primitive gaussians,   210 cartesian basis functions
    10 alpha electrons       10 beta electrons
       nuclear repulsion energy        36.5820175370 Hartrees.
 IExCor=    0 DFT=F Ex=HF Corr=None ExCW=0 ScaHFX=  1.000000
 ScaDFX=  1.000000  1.000000  1.000000  1.000000 ScalE2=  1.000000  1.000000
 IRadAn=      5 IRanWt=     -1 IRanGd=            0 ICorTp=0 IEmpDi=  4
 NAtoms=    6 NActive=    6 NUniq=    5 SFac= 1.44D+00 NAtFMM=   60 NAOKFM=F Big=F
 Integral buffers will be    131072 words long.
 Raffenetti 1 integral format.
 Two-electron integral symmetry is turned on.
 Leave Link  301 at Sun Apr 24 18:00:30 2022, MaxMem= 16106127360 cpu:               1.4 elap:               0.1
 (Enter /sw/contrib/gaussian/g16/B01/g16/l302.exe)
 NPDir=0 NMtPBC=     1 NCelOv=     1 NCel=       1 NClECP=     1 NCelD=      1
         NCelK=      1 NCelE2=     1 NClLst=     1 CellRange=     0.0.
 One-electron integrals computed using PRISM.
 One-electron integral symmetry used in STVInt
 NBasis=   184 RedAO= T EigKep=  2.30D-04  NBF=   115    69
 NBsUse=   184 1.00D-06 EigRej= -1.00D+00 NBFU=   115    69
 Leave Link  302 at Sun Apr 24 18:00:30 2022, MaxMem= 16106127360 cpu:               4.0 elap:               0.2
 (Enter /sw/contrib/gaussian/g16/B01/g16/l303.exe)
 DipDrv:  MaxL=1.
 Leave Link  303 at Sun Apr 24 18:00:30 2022, MaxMem= 16106127360 cpu:               2.0 elap:               0.1
 (Enter /sw/contrib/gaussian/g16/B01/g16/l401.exe)
 Initial guess from the checkpoint file:  "/gscratch/ilahie/abmccoy/ch4/hoh_2_v2/hoh_2.chk"
 B after Tr=     0.000000    0.000000   -0.000000
         Rot=    1.000000    0.000000    0.000000   -0.000000 Ang=  -0.00 deg.
 Guess basis will be translated and rotated to current coordinates.
 JPrj=2 DoOrth=T DoCkMO=T.
 Initial guess orbital symmetries:
       Occupied  (A') (A') (A') (A') (A") (A') (A') (A') (A') (A")
       Virtual   (A') (A") (A') (A') (A') (A') (A') (A") (A") (A')
                 (A') (A") (A') (A') (A") (A') (A') (A") (A") (A')
                 (A') (A") (A') (A') (A') (A") (A') (A') (A") (A')
                 (A') (A") (A') (A') (A") (A") (A') (A') (A') (A")
                 (A') (A') (A") (A') (A") (A') (A") (A') (A') (A')
                 (A") (A') (A") (A') (A") (A") (A') (A') (A") (A")
                 (A') (A') (A') (A") (A') (A') (A") (A') (A") (A')
                 (A") (A') (A") (A') (A') (A") (A') (A') (A") (A')
                 (A') (A') (A") (A") (A') (A') (A") (A') (A') (A')
                 (A') (A") (A") (A') (A') (A") (A') (A") (A') (A')
                 (A") (A") (A') (A') (A") (A') (A') (A") (A') (A")
                 (A') (A") (A') (A') (A") (A') (A") (A') (A") (A')
                 (A") (A") (A') (A") (A') (A') (A") (A') (A') (A')
                 (A") (A') (A") (A") (A') (A") (A") (A') (A') (A')
                 (A") (A') (A') (A') (A') (A') (A") (A') (A") (A')
                 (A') (A') (A") (A') (A") (A") (A") (A') (A") (A')
                 (A') (A") (A') (A") (A') (A') (A') (A") (A') (A')
                 (A") (A') (A') (A')
 The electronic state of the initial guess is 1-A'.
 Leave Link  401 at Sun Apr 24 18:00:30 2022, MaxMem= 16106127360 cpu:               3.8 elap:               0.2
 (Enter /sw/contrib/gaussian/g16/B01/g16/l502.exe)
 Keep R1 ints in memory in symmetry-blocked form, NReq=217645672.
 FoFCou: FMM=F IPFlag=           0 FMFlag=           0 FMFlg1=           0
         NFxFlg=           0 DoJE=F BraDBF=F KetDBF=F FulRan=T
         wScrn=  0.000000 ICntrl=       600 IOpCl=  0 I1Cent=           0 NGrid=           0
         NMat0=    1 NMatS0=  17020 NMatT0=    0 NMatD0=    1 NMtDS0=    0 NMtDT0=    0
 Petite list used in FoFCou.
 Closed shell SCF:
 Using DIIS extrapolation, IDIIS=  1040.
 NGot= 16106127360 LenX= 16033235579 LenY= 16033191038
 Requested convergence on RMS density matrix=1.00D-08 within 128 cycles.
 Requested convergence on MAX density matrix=1.00D-06.
 Requested convergence on             energy=1.00D-06.
 No special actions if energy rises.

 Cycle   1  Pass 1  IDiag  1:
 E= -152.126113126535    
 DIIS: error= 5.47D-06 at cycle   1 NSaved=   1.
 NSaved= 1 IEnMin= 1 EnMin= -152.126113126535     IErMin= 1 ErrMin= 5.47D-06
 ErrMax= 5.47D-06  0.00D+00 EMaxC= 1.00D-01 BMatC= 5.21D-09 BMatP= 5.21D-09
 IDIUse=1 WtCom= 1.00D+00 WtEn= 0.00D+00
 Coeff-Com:  0.100D+01
 Coeff:      0.100D+01
 Gap=     0.504 Goal=   None    Shift=    0.000
 RMSDP=3.65D-07 MaxDP=1.05D-05              OVMax= 1.81D-05

 Cycle   2  Pass 1  IDiag  1:
 E= -152.126113131237     Delta-E=       -0.000000004702 Rises=F Damp=F
 DIIS: error= 1.19D-06 at cycle   2 NSaved=   2.
 NSaved= 2 IEnMin= 2 EnMin= -152.126113131237     IErMin= 2 ErrMin= 1.19D-06
 ErrMax= 1.19D-06  0.00D+00 EMaxC= 1.00D-01 BMatC= 2.69D-10 BMatP= 5.21D-09
 IDIUse=1 WtCom= 1.00D+00 WtEn= 0.00D+00
 Coeff-Com: -0.222D+00 0.122D+01
 Coeff:     -0.222D+00 0.122D+01
 Gap=     0.504 Goal=   None    Shift=    0.000
 RMSDP=9.98D-08 MaxDP=3.77D-06 DE=-4.70D-09 OVMax= 7.36D-06

 Cycle   3  Pass 1  IDiag  1:
 E= -152.126113131641     Delta-E=       -0.000000000404 Rises=F Damp=F
 DIIS: error= 2.94D-07 at cycle   3 NSaved=   3.
 NSaved= 3 IEnMin= 3 EnMin= -152.126113131641     IErMin= 3 ErrMin= 2.94D-07
 ErrMax= 2.94D-07  0.00D+00 EMaxC= 1.00D-01 BMatC= 1.35D-11 BMatP= 2.69D-10
 IDIUse=1 WtCom= 1.00D+00 WtEn= 0.00D+00
 Coeff-Com: -0.130D-01-0.290D-01 0.104D+01
 Coeff:     -0.130D-01-0.290D-01 0.104D+01
 Gap=     0.504 Goal=   None    Shift=    0.000
 RMSDP=1.95D-08 MaxDP=6.02D-07 DE=-4.04D-10 OVMax= 1.83D-06

 Cycle   4  Pass 1  IDiag  1:
 E= -152.126113131662     Delta-E=       -0.000000000021 Rises=F Damp=F
 DIIS: error= 1.34D-07 at cycle   4 NSaved=   4.
 NSaved= 4 IEnMin= 4 EnMin= -152.126113131662     IErMin= 4 ErrMin= 1.34D-07
 ErrMax= 1.34D-07  0.00D+00 EMaxC= 1.00D-01 BMatC= 3.33D-12 BMatP= 1.35D-11
 IDIUse=1 WtCom= 1.00D+00 WtEn= 0.00D+00
 Coeff-Com:  0.244D-01-0.169D+00 0.309D+00 0.835D+00
 Coeff:      0.244D-01-0.169D+00 0.309D+00 0.835D+00
 Gap=     0.504 Goal=   None    Shift=    0.000
 RMSDP=7.65D-09 MaxDP=1.98D-07 DE=-2.10D-11 OVMax= 7.09D-07

 SCF Done:  E(RHF) =  -152.126113132     A.U. after    4 cycles
            NFock=  4  Conv=0.77D-08     -V/T= 2.0015
 KE= 1.518983030808D+02 PE=-4.344234222648D+02 EE= 9.381698851524D+01
 Leave Link  502 at Sun Apr 24 18:00:31 2022, MaxMem= 16106127360 cpu:              28.3 elap:               1.3
 (Enter /sw/contrib/gaussian/g16/B01/g16/l801.exe)
 ExpMin= 2.53D-02 ExpMax= 1.53D+04 ExpMxC= 5.22D+02 IAcc=3 IRadAn=         5 AccDes= 0.00D+00
 HarFok:  IExCor=  205 AccDes= 0.00D+00 IRadAn=         5 IDoV=-2 UseB2=F ITyADJ=14
 ICtDFT= 12500011 ScaDFX=  1.000000  1.000000  1.000000  1.000000
 Largest valence mixing into a core orbital is  1.11D-04
 Largest core mixing into a valence orbital is  1.74D-05
 Range of M.O.s used for correlation:     3   184
 NBasis=   184 NAE=    10 NBE=    10 NFC=     2 NFV=     0
 NROrb=    182 NOA=     8 NOB=     8 NVA=   174 NVB=   174

 **** Warning!!: The largest alpha MO coefficient is  0.20117706D+02

 Leave Link  801 at Sun Apr 24 18:00:32 2022, MaxMem= 16106127360 cpu:               3.1 elap:               0.2
 (Enter /sw/contrib/gaussian/g16/B01/g16/l906.exe)
 Frozen-core derivative calculation, NFC=   2 NFV=   0.
 FulOut=F Deriv=T AODrv=T NAtomX=     6
   MMem=         151  MDisk=           8 MDiskD=           8
  W3Min=      386400 MinDsk=      868055 NBas6D=         210
 NBas2D=       22605    NTT=       22155    LW2=     3500000
    MDV= 16105707041 MDiskM=      383421 NBas2p=       17942
 Fully direct method using O(ONN) memory.
 IMap=   1   2   3   4   5   6   7   8   9  10
 JobTyp=1 Pass  1:  I=   3 to  10 NPSUse= 28 ParTrn=T ParDer=T DoDerP=T.
 Spin components of T(2) and E(2):
     alpha-alpha T2 =       0.1647401564D-01 E2=     -0.6592310150D-01
     alpha-beta  T2 =       0.9465151947D-01 E2=     -0.4082814513D+00
     beta-beta   T2 =       0.1647401564D-01 E2=     -0.6592310150D-01
 The integrals were generated   1 times.
 ANorm=    0.1061884905D+01
 E2 =    -0.5401276544D+00 EUMP2 =    -0.15266624078602D+03
 Leave Link  906 at Sun Apr 24 18:00:38 2022, MaxMem= 16106127360 cpu:             168.7 elap:               6.1
 (Enter /sw/contrib/gaussian/g16/B01/g16/l1002.exe)
 Minotr:  Closed shell wavefunction.
          Computing MP2/KS-MP2 derivatives.
          Using Z-Vector for PSCF gradient.
          Skipping F1 and S1 gradient terms here.
          IDoAtm=111111
          Frozen-core window.
          Direct CPHF calculation.
          Differentiating once with respect to electric field.
                with respect to dipole field.
          Differentiating once with respect to nuclear coordinates.
          Using symmetry in CPHF.
          Requested convergence is 1.0D-10 RMS, and 1.0D-09 maximum.
          NewPWx=F KeepS1=T KeepF1=T KeepIn=T MapXYZ=F SortEE=F KeepMc=T.
 Keep R1 ints in memory in symmetry-blocked form, NReq=217646936.
 FoFCou: FMM=F IPFlag=           0 FMFlag=           0 FMFlg1=           0
         NFxFlg=           0 DoJE=F BraDBF=F KetDBF=F FulRan=T
         wScrn=  0.000000 ICntrl=       600 IOpCl=  0 I1Cent=           0 NGrid=           0
         NMat0=    1 NMatS0=  17020 NMatT0=    0 NMatD0=    1 NMtDS0=    0 NMtDT0=    0
 Petite list used in FoFCou.
          MDV=   16106127360 using IRadAn=       5.
          Solving linear equations separately, MaxMat=       0.
          There are     1 degrees of freedom in the 1st order CPHF.  IDoFFX=0 NUNeed=     1.
 LinEq1:  Iter=  0 NonCon=     1 RMS=3.34D-03 Max=4.68D-02 NDo=     1
 AX will form     1 AO Fock derivatives at one time.
 LinEq1:  Iter=  1 NonCon=     1 RMS=4.24D-04 Max=4.52D-03 NDo=     1
 LinEq1:  Iter=  2 NonCon=     1 RMS=1.37D-04 Max=1.63D-03 NDo=     1
 LinEq1:  Iter=  3 NonCon=     1 RMS=4.14D-05 Max=3.43D-04 NDo=     1
 LinEq1:  Iter=  4 NonCon=     1 RMS=5.55D-06 Max=3.97D-05 NDo=     1
 LinEq1:  Iter=  5 NonCon=     1 RMS=1.09D-06 Max=8.15D-06 NDo=     1
 LinEq1:  Iter=  6 NonCon=     1 RMS=2.36D-07 Max=2.33D-06 NDo=     1
 LinEq1:  Iter=  7 NonCon=     1 RMS=1.04D-07 Max=1.17D-06 NDo=     1
 LinEq1:  Iter=  8 NonCon=     1 RMS=1.59D-08 Max=1.10D-07 NDo=     1
 LinEq1:  Iter=  9 NonCon=     1 RMS=2.78D-09 Max=2.38D-08 NDo=     1
 LinEq1:  Iter= 10 NonCon=     1 RMS=5.61D-10 Max=4.54D-09 NDo=     1
 LinEq1:  Iter= 11 NonCon=     0 RMS=7.51D-11 Max=6.52D-10 NDo=     1
 Linear equations converged to 1.000D-10 1.000D-09 after    11 iterations.
 End of Minotr F.D. properties file   721 does not exist.
 End of Minotr F.D. properties file   722 does not exist.
 End of Minotr F.D. properties file   788 does not exist.
 Leave Link 1002 at Sun Apr 24 18:00:40 2022, MaxMem= 16106127360 cpu:              36.6 elap:               2.6
 (Enter /sw/contrib/gaussian/g16/B01/g16/l701.exe)
 ... and contract with generalized density number  2.
 Compute integral first derivatives.
 Leave Link  701 at Sun Apr 24 18:00:41 2022, MaxMem= 16106127360 cpu:               4.0 elap:               0.2
 (Enter /sw/contrib/gaussian/g16/B01/g16/l702.exe)
 L702 exits ... SP integral derivatives will be done elsewhere.
 Leave Link  702 at Sun Apr 24 18:00:41 2022, MaxMem= 16106127360 cpu:               1.5 elap:               0.1
 (Enter /sw/contrib/gaussian/g16/B01/g16/l703.exe)
 Integral derivatives from FoFJK, PRISM(SPDF).
 Compute integral first derivatives, UseDBF=F ICtDFT=           0.
 Calling FoFJK, ICntrl=  10002127 FMM=F ISym2X=1 I1Cent= 0 IOpClX= 0 NMat=1 NMatS=1 NMatT=0.
 FoFJK:  IHMeth= 1 ICntrl=10002127 DoSepK=F KAlg= 0 I1Cent=           0 FoldK=F
 IRaf=         0 NMat=       1 IRICut=       1 DoRegI=T DoRafI=F ISym2E= 1 IDoP0=0 IntGTp=1.
 FoFCou: FMM=F IPFlag=           0 FMFlag=      100000 FMFlg1=         800
         NFxFlg=           0 DoJE=F BraDBF=F KetDBF=F FulRan=T
         wScrn=  0.000000 ICntrl=  10002127 IOpCl=  0 I1Cent=           0 NGrid=           0
         NMat0=    1 NMatS0=      1 NMatT0=    0 NMatD0=    1 NMtDS0=    0 NMtDT0=    0
 Petite list used in FoFCou.
 Leave Link  703 at Sun Apr 24 18:00:41 2022, MaxMem= 16106127360 cpu:              23.7 elap:               0.9
 (Enter /sw/contrib/gaussian/g16/B01/g16/l716.exe)
 Dipole        =-2.10968829D-02-1.03049221D+00-2.22044605D-16
 ***** Axes restored to original set *****
 -------------------------------------------------------------------
 Center     Atomic                   Forces (Hartrees/Bohr)
 Number     Number              X              Y              Z
 -------------------------------------------------------------------
      1        8          -0.000000326   -0.000000000    0.000002228
      2        1          -0.000000665    0.000000000   -0.000000270
      3        1           0.000001494   -0.000000000   -0.000002894
      4        8           0.000000111    0.000000000    0.000000979
      5        1          -0.000000307   -0.000000557   -0.000000022
      6        1          -0.000000307    0.000000557   -0.000000022
 -------------------------------------------------------------------
 Cartesian Forces:  Max     0.000002894 RMS     0.000000999
 Leave Link  716 at Sun Apr 24 18:00:42 2022, MaxMem= 16106127360 cpu:               1.5 elap:               0.1
 (Enter /sw/contrib/gaussian/g16/B01/g16/l103.exe)

[...]
 .40662456,0.10170062,0.,-0.04105191,0.00595239,0.,-0.00175674,-0.10812
 125,0.,-0.03809965,0.,0.,-0.01053488,0.,0.,0.04875894,-0.02639571,0.,0
 .00619120,-0.01664801,0.,0.00969581,0.04315697,0.,-0.01676264,-0.00084
 113,0.,-0.00050683,0.00046878,0.,-0.00001147,0.00086610,0.,0.00089776,
 0.16924328,0.,-0.00110186,0.,0.,0.00018688,0.,0.,0.00181341,-0.0000000
 1,0.00000008,-0.46806450,0.00058751,0.,-0.00037232,-0.00001999,0.,0.00
 007716,-0.00059698,0.,0.00040942,0.00687293,-0.00000023,-0.19770180,0.
 00043921,0.00010157,0.00011198,-0.00018314,0.00006580,0.00010019,-0.00
 019894,-0.00038372,-0.00050551,-0.08486889,-0.08206406,-0.00342176,0.0
 9446237,-0.00021890,0.00042222,0.00020876,-0.00008051,-0.00000689,0.00
 005711,0.00034166,-0.00096891,-0.00033364,-0.08484292,0.23358272,0.232
 05829,0.08354052,-0.25545134,-0.00042706,0.00002194,-0.00000542,0.0002
 1385,0.00000464,-0.00014163,0.00012434,0.00011201,0.00023311,-0.003626
 23,0.25137802,0.09879347,0.00079027,-0.24175353,-0.09233184,0.00043920
 ,-0.00010157,0.00011198,-0.00018314,-0.00006580,0.00010019,-0.00019893
 ,0.00038372,-0.00050550,-0.08486817,0.08206398,-0.00342171,-0.00965061
 ,0.00126015,0.00292484,0.09446166,0.00021889,0.00042222,-0.00020876,0.
 00008051,-0.00000689,-0.00005712,-0.00034166,-0.00096891,0.00033365,0.
 08484284,0.23358333,-0.23205806,-0.00126012,0.02242219,-0.00976308,-0.
 08354046,-0.25545195,-0.00042704,-0.00002194,-0.00000542,0.00021385,-0
 .00000464,-0.00014162,0.00012433,-0.00011201,0.00023310,-0.00362616,-0
 .25137777,0.09879404,0.00292482,0.00976301,-0.00654770,0.00079020,0.24
 175336,-0.09233239,-0.05201012,0.,0.02245151,0.02885544,0.,-0.09612031
 ,-0.03636426,0.,0.00167861,0.03648080,0.,-0.01281188,0.,0.,0.01363571,
 -0.00181772,0.,0.11763769,0.00340706,0.,-0.11921095,0.08987705,0.,-0.0
 3108562,0.00011334,0.,-0.00138004,-0.08993371,0.,-0.00950953,0.,0.,-0.
 00089816,0.,0.,0.00993442,-0.02767218,0.,-0.02136683,-0.00530259,0.,0.
 00144406,0.03243401,0.,0.02042530,-0.00186756,0.,0.00044402,-0.0001769
 6,0.,-0.00007215,-0.00015889,0.,0.00059919,0.21404950,0.00000001,-0.00
 049443,0.,0.,0.00008452,0.,0.,0.00122958,0.,0.00000001,-0.35359277,0.0
 0116893,0.,-0.00080735,0.00034411,0.,0.00010574,-0.00078237,0.,0.00133
 284,0.10496419,-0.00000010,-0.21112541,0.00018245,0.00019613,0.0000537
 7,-0.00002646,0.00002525,-0.00006857,0.00005111,-0.00055023,-0.0000292
 1,-0.10592314,-0.03665347,-0.05284746,0.09726114,0.00005253,0.00018216
 ,0.00005442,-0.00002354,-0.00000509,0.00002258,-0.00015259,-0.00037816
 ,-0.00017805,-0.03264419,0.17638651,0.14344403,0.03487506,-0.16839248,
 -0.00026723,0.00012312,0.00032840,-0.00006360,0.00006947,0.00001172,0.
 00040701,-0.00049975,-0.00091768,-0.05296762,0.16300912,0.10524704,0.0
 4889271,-0.15302247,-0.09748151,0.00018245,-0.00019613,0.00005377,-0.0
 0002646,-0.00002525,-0.00006858,0.00005110,0.00055023,-0.00002921,-0.1
 0592298,0.03665345,-0.05284739,0.00845490,-0.00210727,0.00399873,0.097
 26099,-0.00005254,0.00018216,-0.00005441,0.00002354,-0.00000509,-0.000
 02259,0.00015259,-0.00037816,0.00017806,0.03264418,0.17638656,-0.14344
 393,0.00210726,-0.00779294,-0.00967949,-0.03487503,-0.16839254,-0.0002
 6723,-0.00012312,0.00032839,-0.00006360,-0.00006946,0.00001173,0.00040
 701,0.00049975,-0.00091768,-0.05296762,-0.16300902,0.10524711,0.003998
 76,0.00967949,-0.00718797,0.04889268,0.15302236,-0.09748159,-0.0388021
 4,0.,0.01534484,0.02272352,0.,-0.06506901,-0.02438177,0.,0.00072412,0.
 02454571,0.,-0.00841774,0.,0.,0.00914690,-0.00178042,0.,0.07973638,0.0
 0324023,0.,-0.08109313,0.06540890,0.,-0.02419374,-0.00020400,0.,-0.001
 48426,-0.06269733,0.,-0.00714534,0.,0.,-0.00069553,0.,0.,0.00732495,-0
 .02181241,0.,-0.01452722,-0.00391991,0.,0.00126068,0.02463673,0.,0.013
 19415,-0.00168546,0.,-0.00017521,0.00022127,0.,0.00010813,-0.00388177,
 0.,0.00257827,0.19032947,0.,-0.00002575,0.,0.,0.00001862,0.,-0.0000000
 4,0.00080551,0.00000002,0.00000003,-0.30709699,0.00093734,0.,-0.000491
 47,0.00001262,0.,0.00002183,0.00073556,0.,0.00096978,0.09113114,0.0000
 0013,-0.18415752,-0.00026977,0.00014883,0.00046066,-0.00009060,0.00002
 450,-0.00004184,0.00068711,-0.00045579,-0.00074134,-0.09249168,-0.0319
 6842,-0.04640833,0.08453988,-0.00014149,0.00012199,0.00016632,0.000032
 96,-0.00002613,0.00000004,0.00029171,-0.00014479,-0.00017902,-0.028506
 37,0.15314929,0.12470758,0.03028705,-0.14640278,-0.00003401,0.00000535
 ,0.00017567,-0.00002853,-0.00002333,0.00003711,0.00015287,0.00020690,-
 0.00044869,-0.04682116,0.14144227,0.09182871,0.04345276,-0.13316307,-0
 .08517279,-0.00026977,-0.00014883,0.00046065,-0.00009060,-0.00002450,-
 0.00004184,0.00068710,0.00045579,-0.00074134,-0.09249184,0.03196842,-0
 .04640833,0.00762507,-0.00196385,0.00327808,0.08454003,0.00014150,0.00
 012200,-0.00016633,-0.00003296,-0.00002613,-0.00000004,-0.00029167,-0.
 00014479,0.00017901,0.02850634,0.15314930,-0.12470771,0.00196383,-0.00
 669760,-0.00846812,-0.03028704,-0.14640278,-0.00003401,-0.00000535,0.0
 0017566,-0.00002853,0.00002333,0.00003712,0.00015285,-0.00020690,-0.00
 044869,-0.04682117,-0.14144241,0.09182864,0.00327810,0.00846815,-0.006
 42000,0.04345278,0.13316318,-0.08517272,-0.17704106,0.,0.10479919,0.12
 922899,0.,-0.49812454,-0.18175327,0.,0.00881012,0.17996865,0.,-0.06470
 126,0.,0.,0.06890553,-0.00737629,0.,0.58282258,0.01559556,0.,-0.588932
 95,0.36012094,0.,-0.13735047,0.00076554,0.,-0.00745386,-0.36125386,0.,
 -0.03952823,0.,0.,-0.00411249,0.,0.,0.04193553,-0.12081592,0.,-0.08364
 546,-0.02468656,0.,0.00522561,0.14152447,0.,0.07774094,-0.00210907,0.,
 -0.00178759,0.00119185,0.,-0.00033603,0.00395492,0.,0.00552052,0.13011
 216,0.,-0.00101199,0.,0.,-0.00001170,0.,0.,0.00238726,0.,-0.00000007,-
 0.23011818,-0.00073610,0.,-0.00074416,0.00013753,0.,0.00076565,0.00173
 849,0.,-0.00023546,0.06414945,0.00000024,-0.13707648,0.00039123,0.0002
 5686,0.00054948,-0.00008638,0.00010150,-0.00021469,-0.00179378,-0.0007
 3064,-0.00077124,-0.06657478,-0.02072705,-0.03264468,0.06281780,0.0002
 9547,0.00022114,-0.00002117,-0.00008192,-0.00004004,0.00000386,0.00012
 025,-0.00034104,-0.00027719,-0.01959043,0.11437736,0.09367103,0.020177
 98,-0.10932054,-0.00015034,0.00013305,-0.00015421,0.00007168,-0.000056
 55,0.00005956,0.00077069,-0.00027878,0.00045718,-0.03377313,0.10614611
 ,0.06864527,0.03083590,-0.09966018,-0.06420516,0.00039123,-0.00025686,
 0.00054948,-0.00008638,-0.00010150,-0.00021469,-0.00179377,0.00073064,
 -0.00077125,-0.06657512,0.02072713,-0.03264469,0.00524591,-0.00092136,
 0.00224521,0.06281814,-0.00029547,0.00022114,0.00002118,0.00008192,-0.
 00004004,-0.00000386,-0.00012025,-0.00034104,0.00027719,0.01959050,0.1
 1437724,-0.09367128,0.00092134,-0.00489688,-0.00628366,-0.02017804,-0.
 10932043,-0.00015034,-0.00013305,-0.00015422,0.00007167,0.00005655,0.0
 0005956,0.00077068,0.00027878,0.00045719,-0.03377322,-0.10614635,0.068
 64514,0.00224525,0.00628366,-0.00480264,0.03083595,0.09966042,-0.06420
 504,-1.10409659,0.,0.40558408,0.29375470,0.,0.04193445,0.03940920,0.,0
 .01602498,-0.03329198,0.,-0.01921144,0.,0.,0.02238870,-0.01974546,0.,-
 0.00984265,0.01238054,0.,0.00018362,1.06611753,0.,-0.30985623,-0.00597
 266,0.,0.00733173,-1.05572126,0.,-0.38448191,0.,0.,-0.00343242,0.,0.,0
 .37584706,-0.27495091,0.,-0.03164721,-0.02827947,0.,0.00964505,0.29838
 361,0.,0.02098373,-0.00158941,0.,0.00024783,-0.00044922,0.,0.00010757,
 -0.00054952,0.,0.00372106,0.04426602,0.,-0.00222965,0.,0.,0.00038808,0
 .,0.00000002,0.01296759,-0.00000001,0.00000002,-0.12878311,0.00051566,
 0.,-0.00059710,0.00006903,0.,0.00006810,-0.00032610,0.,0.00224019,0.00
 451556,-0.00000013,-0.05390428,0.00007963,0.00088306,-0.00008564,0.000
 15233,-0.00012747,-0.00003719,-0.00193705,-0.00431317,0.00056286,-0.02
 083901,-0.01387356,-0.00238707,0.02535200,0.00035630,0.00016946,0.0001
 1899,-0.00012470,-0.00006646,0.00005043,-0.00008035,-0.00045016,-0.000
 32169,-0.01877262,0.05882854,0.05029437,0.01802625,-0.06424091,0.00021
 301,-0.00054698,0.00007625,-0.00009754,0.00007904,-0.00002706,0.002233
 49,0.00116914,-0.00061088,-0.00429602,0.05302704,0.02609650,0.00157984
 ,-0.05193515,-0.02435488,0.00007964,-0.00088306,-0.00008565,0.00015233
 ,0.00012747,-0.00003719,-0.00193705,0.00431318,0.00056286,-0.02083887,
 0.01387352,-0.00238708,-0.00280791,0.00059512,0.00036722,0.02535186,-0
 .00035631,0.00016946,-0.00011899,0.00012470,-0.00006646,-0.00005044,0.
 00008034,-0.00045016,0.00032170,0.01877261,0.05882854,-0.05029424,-0.0
 0059511,0.00575953,-0.00179310,-0.01802622,-0.06424092,0.00021301,0.00
 054698,0.00007624,-0.00009753,-0.00007904,-0.00002706,0.00223349,-0.00
 116914,-0.00061088,-0.00429600,-0.05302691,0.02609657,0.00036720,0.001
 79305,-0.00117992,0.00157983,0.05193506,-0.02435495,-0.03828895,0.,-0.
 00021598,-0.00690023,0.,-0.02979217,-0.00186381,0.,0.01209959,0.004262
 93,0.,0.00000850,0.,0.,0.00014298,0.00401854,0.,0.03393333,-0.00703825
 ,0.,-0.03249516,0.04088470,0.,-0.00568911,-0.00247544,0.,0.00303837,-0
 .03848565,0.,0.00023715,0.,0.,-0.00014251,0.,0.,-0.00016182,0.00248420
 ,0.,-0.00366901,-0.00518213,0.,-0.00150508,0.00351566,0.,0.00453226,-0
 .00153443,0.,0.00044305,0.00022204,0.,0.00000223,0.00185549,0.,-0.0017
 0067,-0.01530704,-0.00000001,-0.00009144,0.00000001,0.,-0.00009619,0.,
 0.00000002,0.00095152,-0.00000002,-0.00000002,-0.49017960,0.00081496,0
 .,-0.00037623,-0.00011084,0.,0.00027733,-0.00320003,0.,0.00058093,0.16
 205285,-0.00000020,-0.64260753,0.00040124,-0.00010432,0.00002335,-0.00
 007286,0.00006747,-0.00001044,-0.00088955,0.00005940,0.00044147,0.0073
 8194,-0.10156684,-0.07977848,-0.00466875,-0.00003527,0.00003088,0.0001
 2129,-0.00005079,0.00004361,0.00002540,0.00001194,-0.00044217,-0.00002
 457,-0.06897012,0.24470793,0.28387097,0.08529428,-0.23059311,-0.000208
 73,0.00017256,-0.00004798,0.00011581,-0.00007655,-0.00010521,0.0011675
 5,-0.00024440,0.00003045,-0.08039872,0.42157130,0.32106279,0.06762705,
 -0.35270797,-0.27415864,0.00040124,0.00010432,0.00002334,-0.00007286,-
 0.00006747,-0.00001044,-0.00088956,-0.00005940,0.00044147,0.00738197,0
 .10156685,-0.07977845,-0.00215201,-0.01625003,0.01169704,-0.00466879,0
 .00003528,0.00003088,-0.00012130,0.00005079,0.00004361,-0.00002540,-0.
 00001196,-0.00044216,0.00002459,0.06897015,0.24470778,-0.28387077,0.01
 625000,-0.01374714,-0.06871494,-0.08529427,-0.23059297,-0.00020874,-0.
 00017256,-0.00004797,0.00011581,0.00007655,-0.00010521,0.00116755,0.00
 024440,0.00003045,-0.08039873,-0.42157110,0.32106269,0.01169705,0.0687
 1489,-0.04678141,0.06762704,0.35270783,-0.27415854,-0.66602209,-0.0000
 0001,0.02163764,-0.07304017,0.,-0.49112843,-0.02619202,0.,0.20953980,0
 .06645884,0.,-0.00448679,0.,0.,0.00303996,0.06721095,0.,0.55742181,-0.
 12080160,0.,-0.53194938,0.69635262,0.,-0.14226548,-0.04018233,0.,0.055
 50671,-0.66260292,0.,-0.01663191,0.,0.,0.00128673,0.,0.,0.01458521,0.0
 0500070,0.,-0.06535515,-0.08824882,0.,-0.02597585,0.08491498,0.,0.0900
 1040,-0.00433260,0.,0.00629590,-0.00020408,0.,-0.00200604,0.00924415,0
 .,-0.00148643,-0.00799496,0.00000001,-0.00049457,0.00000001,0.,0.00014
 446,0.,0.,0.00099090,0.,0.00000001,-0.03121763,0.00101313,0.,-0.000631
 66,-0.00049480,0.,0.00054143,0.00090035,0.00000001,-0.00040289,0.00843
 697,-0.00000015,-0.03608996,0.00009706,0.00009794,-0.00026503,0.000059
 80,0.00001143,0.00004499,-0.00140576,-0.00019120,-0.00009022,0.0016435
 2,-0.00598281,-0.00492782,-0.00037935,-0.00011762,-0.00001219,0.000658
 74,-0.00000831,0.00000782,-0.00027447,0.00087496,-0.00011546,-0.000657
 34,-0.00494138,0.01528832,0.01646418,0.00512850,-0.01449088,-0.0000923
 0,-0.00002488,-0.00015329,0.00000271,0.00000207,-0.00001900,0.00047171
 ,0.00041864,0.00086175,-0.00562021,0.02362572,0.01829135,0.00443732,-0
 .02010634,-0.01627113,0.00009705,-0.00009794,-0.00026503,0.00005979,-0
 .00001143,0.00004500,-0.00140575,0.00019119,-0.00009022,0.00164394,0.0
 0598278,-0.00492783,-0.00001527,-0.00093614,0.00080077,-0.00037976,0.0
 0011762,-0.00001219,-0.00065875,0.00000831,0.00000782,0.00027447,-0.00
 087497,-0.00011546,0.00065735,0.00494137,0.01528849,-0.01646404,0.0009
 3614,-0.00067761,-0.00391522,-0.00512846,-0.01449105,-0.00009231,0.000
 02488,-0.00015328,0.00000271,-0.00000207,-0.00001901,0.00047173,-0.000
 41865,0.00086174,-0.00562019,-0.02362556,0.01829170,0.00080075,0.00391
 522,-0.00270968,0.00443731,0.02010619,-0.01627147,5.26897130,-0.000000
 03,-1.30841280,-1.66687775,0.,-0.15202926,0.09235236,0.,-0.00398775,-0
 .11682651,0.,0.10492013,0.,0.,-0.13158376,0.05913565,0.,-0.58733664,-0
 .05058738,0.,0.62317968,-5.34726557,0.00000003,1.66325916,0.02754723,0
 .,-0.00681532,5.29056312,0.00000005,1.20215184,0.,-0.00000002,0.026487
 08,0.,-0.00000003,-1.21604909,1.60044495,0.,0.74206990,0.05313168,0.,-
 0.03650984,-1.63694791,0.,-0.70604395,-0.01109912,-0.00000001,0.006548
 25,-0.00237145,0.,-0.00154232,0.01699578,0.,-0.01581512,0.00014313,-0.
 00000002,0.00186102,0.,0.,0.00014005,0.,0.00000004,-0.01446669,-0.0000
 0002,-0.00000002,0.05053394,0.00751198,0.,-0.00271038,0.00132296,0.,0.
 00053910,-0.01702100,0.,0.00347545,-0.00000852,0.00000007,0.00805432,-
 0.00147949,-0.00064512,0.00052904,-0.00035082,0.00004430,-0.00009532,0
 .00607972,0.00445869,-0.00040681,-0.00183412,-0.00267037,0.00409729,-0
 .00328140,-0.00151239,-0.00026010,0.00053352,-0.00009673,0.00001825,-0
 .00000752,0.00564283,0.00093843,-0.00225452,-0.00049915,-0.01903427,-0
 .01665421,-0.00236103,0.01847514,-0.00010743,0.00016645,0.00000318,0.0
 0006024,-0.00000975,0.00006384,-0.00123747,-0.00085400,-0.00149578,0.0
 0540884,-0.01678054,-0.00467921,-0.00375002,0.01793032,0.00493276,-0.0
 0147949,0.00064512,0.00052905,-0.00035082,-0.00004429,-0.00009532,0.00
 607972,-0.00445869,-0.00040680,-0.00183425,0.00267037,0.00409729,0.000
 86611,-0.00117353,-0.00037417,-0.00328128,0.00151240,-0.00026010,-0.00
 053352,0.00009673,0.00001825,0.00000751,-0.00564286,0.00093844,0.00225
 455,0.00049918,-0.01903408,0.01665414,0.00117354,-0.00013745,-0.000452
 48,0.00236102,0.01847494,-0.00010741,-0.00016645,0.00000317,0.00006024
 ,0.00000975,0.00006385,-0.00123746,0.00085401,-0.00149579,0.00540886,0
 .01678048,-0.00467931,-0.00037419,0.00045241,0.00117521,-0.00375003,-0
 .01793021,0.00493286,0.03472572,0.,-0.01373976,-0.01193450,0.,0.015775
 90,0.00412593,0.,-0.00052735,-0.00391825,0.,0.00475002,0.,0.,-0.005006
 74,0.00069283,0.,-0.02103875,-0.00052635,0.,0.02134356,-0.03993614,0.,
 0.01273551,-0.00025937,0.,-0.00019063,0.04182204,0.,0.00933934,0.,0.,0
 .00025906,0.,0.,-0.01078206,0.01174504,0.,0.00539387,0.00097732,0.,-0.
 00030209,-0.01339848,0.,-0.00542071,0.00115777,0.,0.00037446,-0.000271
 26,0.,-0.00005091,-0.00055101,0.,-0.00087503,-1.17729394,0.00000001,-0
 .00003687,0.,0.,0.00004967,0.,-0.00000003,-0.00067161,0.,-0.00000004,3
 .62587520,-0.00055991,-0.00000001,0.00013309,0.00007432,0.,0.00004839,
 0.00020913,0.00000001,-0.00044436,-0.66811593,-0.00000008,1.49440696,-
 0.00003664,-0.00003353,-0.00032407,0.00016147,-0.00002830,0.00003753,-
 0.00053777,0.00031050,0.00077558,0.58847902,0.44215643,0.33419617,-0.6
 2277311,0.00059573,-0.00015636,-0.00030240,0.00003719,-0.00002600,0.00
 010733,-0.00125066,0.00092763,0.00070705,0.42294957,-1.81260841,-1.794
 07853,-0.43236844,1.85393154,0.00002827,-0.00000105,-0.00013206,0.0000
 0103,-0.00000242,-0.00002555,0.00032224,0.00017426,0.00038664,0.334333
 70,-1.87946822,-0.74707215,-0.33552455,1.83643196,0.71611345,-0.000036
 64,0.00003353,-0.00032407,0.00016148,0.00002830,0.00003753,-0.00053776
 ,-0.00031050,0.00077558,0.58847939,-0.44215637,0.33419622,0.03470702,0
 .01003662,0.00083931,-0.62277349,-0.00059574,-0.00015636,0.00030240,-0
 .00003718,-0.00002601,-0.00010733,0.00125069,0.00092763,-0.00070706,-0
 .42294953,-1.81260802,1.79407861,-0.01003666,-0.04206840,0.04286546,0.
 43236843,1.85393116,0.00002827,0.00000106,-0.00013207,0.00000102,0.000
 00242,-0.00002555,0.00032222,-0.00017427,0.00038665,0.33433371,1.87946
 830,-0.74707197,0.00083934,-0.04286541,0.03072969,-0.33552457,-1.83643
 209,0.71611325,-0.66618866,0.,-1.48365149,-0.02554595,-0.00000005,6.13
 373466,1.28621692,0.,-0.13806660,-1.26783736,-0.00000002,1.33875864,0.
 00000006,0.,-1.34311215,-0.12342861,0.00000005,-6.22625299,0.11768765,
 -0.00000004,6.19989377,-0.61965775,-0.00000001,0.16197318,-0.01605355,
 0.00000002,0.00688910,0.63103279,0.00000002,0.14454406,0.,0.,0.0043255
 1,0.,0.,-0.14671134,0.14790094,0.,0.09324862,0.02000280,-0.00000001,0.
 02604735,-0.16565715,0.00000001,-0.11946378,0.00026790,0.,0.00152097,-
 0.00251837,0.,-0.00123457,0.00314838,0.,-0.00210364,0.00061301,0.,0.00
 067658,0.,0.,-0.00021349,0.,0.,-0.00246817,0.,-0.00000002,0.00511112,0
 .00104437,0.,-0.00051873,0.00029212,0.,0.00017535,-0.00271758,0.,0.000
 50501,0.00016026,0.00000021,0.00086056,-0.00031920,-0.00011967,0.00005
 920,0.00009618,0.00007090,0.00004322,0.00076507,0.00062092,-0.00007148
 ,-0.00075533,-0.00055297,0.00061043,0.00011356,-0.00031973,-0.00016389
 ,0.00009191,0.00001916,0.00012074,-0.00011711,0.00074876,0.00015497,-0
 .00018896,-0.00005229,-0.00155294,-0.00144751,-0.00020754,0.00145983,0
 .00001462,0.00009392,-0.00010579,0.00004201,-0.00007077,0.00006826,-0.
 00024377,-0.00019053,-0.00016860,0.00082850,-0.00125770,-0.00051105,-0
 .00058345,0.00154333,0.00051777,-0.00031919,0.00011967,0.00005920,0.00
 009618,-0.00007090,0.00004321,0.00076506,-0.00062092,-0.00007148,-0.00
 075561,0.00055298,0.00061039,0.00009971,-0.00018835,-0.00005792,0.0001
 1384,0.00031973,-0.00016389,-0.00009191,-0.00001915,0.00012075,0.00011
 711,-0.00074876,0.00015498,0.00018896,0.00005231,-0.00155311,0.0014473
 0,0.00018835,-0.00001871,-0.00011825,0.00020752,0.00145999,0.00001462,
 -0.00009392,-0.00010578,0.00004201,0.00007077,0.00006825,-0.00024377,0
 .00019053,-0.00016860,0.00082846,0.00125749,-0.00051119,-0.00005791,0.
 00011834,0.00019940,-0.00058340,-0.00154319,0.00051792,-0.00023922,0.,
 -0.00022745,0.00000197,0.,-0.00031509,0.00005769,0.,0.00003189,-0.0001
 2375,0.,0.00008138,0.,0.,-0.00008626,0.00001346,0.,0.00020272,0.000008
 05,0.,-0.00008943,0.00027536,0.,-0.00006296,0.00009408,0.,0.00003584,-
 0.00095040,0.,0.00005263,0.,0.,0.00004455,0.,0.,-0.00007408,-0.0000394
 5,0.,-0.00008054,0.00002956,0.,-0.00015973,0.00006393,0.,0.00063460,0.
 00056909,0.,0.00061332,-0.00029566,0.,-0.00013354,0.00069332,0.,-0.001
 27682,-1.32442283,0.,0.00057768,0.00000001,0.,-0.00010505,0.,0.,-0.001
 65775,-0.00000002,0.00000007,3.57323828,-0.00048552,0.,0.00092504,-0.0
 0024653,0.,-0.00002944,0.00098606,0.,-0.00184177,-0.76164088,-0.000000
 41,1.71101733,-0.00033145,-0.00011648,-0.00029212,0.00013382,-0.000072
 82,0.00003809,-0.00005617,0.00039162,0.00061139,0.66172770,0.46781321,
 0.38069340,-0.65759955,0.00005685,-0.00024212,-0.00011279,0.00008123,0
 .00003269,0.00005643,-0.00037946,0.00081732,0.00019990,0.46950399,-1.7
 8602668,-1.98416175,-0.46863906,1.78144499,0.00025477,-0.00041475,-0.0
 0036607,0.00008851,0.00005734,0.00003794,-0.00051145,0.00079168,0.0007
 2374,0.38121893,-1.98023494,-0.85503581,-0.37865122,1.98190946,0.84876
 595,-0.00033145,0.00011648,-0.00029212,0.00013382,0.00007282,0.0000381
 0,-0.00005618,-0.00039162,0.00061139,0.66172838,-0.46781328,0.38069347
 ,-0.00387435,-0.00062353,-0.00239955,-0.65760022,-0.00005684,-0.000242
 12,0.00011278,-0.00008123,0.00003269,-0.00005643,0.00037945,0.00081733
 ,-0.00019988,-0.46950406,-1.78602649,1.98416215,0.00062353,0.00397382,
 -0.00210878,0.46863913,1.78144479,0.00025476,0.00041475,-0.00036607,0.
 00008851,-0.00005734,0.00003794,-0.00051142,-0.00079168,0.00072371,0.3
 8121898,1.98023535,-0.85503538,-0.00239955,0.00210876,0.00587426,-0.37
 865129,-1.98190984,0.84876553\\@


  DISAPPOINTMENT IS THE NURSE OF WISDOM.               
                              SIR BOYLE ROCHE                 
 Job cpu time:       0 days 22 hours 28 minutes  5.5 seconds.
 Elapsed time:       0 days  0 hours 49 minutes 26.2 seconds.
 File lengths (MBytes):  RWF=   3316 Int=      0 D2E=      0 Chk=     48 Scr=      1
 Normal termination of Gaussian 16 at Sun Apr 24 18:51:30 2022.
