Water freq                                                              
Freq      RMP2-FC                                                     Aug-CC-pVDZ         
Number of atoms                            I                3
Info1-9                                    I   N=           9
          27          25        1002           0           0         100
           6           2           1
Charge                                     I                0
Multiplicity                               I                1
Number of electrons                        I               10
Number of alpha electrons                  I                5
Number of beta electrons                   I                5
Number of basis functions                  I               41
Number of independent functions            I               41
Number of point charges in /Mol/           I                0
Number of translation vectors              I                0
Atomic numbers                             I   N=           3
           8           1           1
Nuclear charges                            R   N=           3
  8.00000000E+00  1.00000000E+00  1.00000000E+00
Current cartesian coordinates              R   N=           9
 -5.91645679E-31  0.00000000E+00  2.25076607E-01 -3.15544362E-30  1.43714391E+00
 -9.00306427E-01 -1.75999369E-16 -1.43714391E+00 -9.00306427E-01
Force Field                                I                0
Int Atom Types                             I   N=           3
           0           0           0
MM charges                                 R   N=           3
  0.00000000E+00  0.00000000E+00  0.00000000E+00
Integer atomic weights                     I   N=           3
          16           1           1
Real atomic weights                        R   N=           3
  1.59949146E+01  1.00782504E+00  1.00782504E+00
Atom fragment info                         I   N=           3
           0           0           0
Atom residue num                           I   N=           3
           0           0           0
Nuclear spins                              I   N=           3
           0           1           1
Nuclear ZEff                               R   N=           3
 -5.60000000E+00 -1.00000000E+00 -1.00000000E+00
Nuclear ZNuc                               R   N=           3
  8.00000000E+00  1.00000000E+00  1.00000000E+00
Nuclear QMom                               R   N=           3
  0.00000000E+00  0.00000000E+00  0.00000000E+00
Nuclear GFac                               R   N=           3
  0.00000000E+00  2.79284600E+00  2.79284600E+00
MicOpt                                     I   N=           3
          -1          -1          -1
SymInf integers                            I   N=          26
           2           4           1           1           1          -1
          -1           1          -1           1           1           1
          -1           1           0           0           0           0
           0           0           0           0           0           0
           0           0
RotTr to input orientation                 R   N=          12
  5.14148675E-15 -1.00000000E+00 -1.62732334E-15 -6.16532999E-01 -4.45113521E-15
  7.87329068E-01 -7.87329068E-01 -3.04474344E-15 -6.16532999E-01 -6.74040389E-02
  8.33698403E-17 -5.27820144E-02
Number of contracted shells                I               19
Number of primitive shells                 I               37
Pure/Cartesian d shells                    I                0
Pure/Cartesian f shells                    I                0
Highest angular momentum                   I                2
Largest degree of contraction              I                7
Shell types                                I   N=          19
           0           0           0           0           1           1
           1          -2          -2           0           0           0
           1           1           0           0           0           1
           1
Number of primitives per shell             I   N=          19
           7           7           1           1           3           1
           1           1           1           3           1           1
           1           1           3           1           1           1
           1
Shell to atom map                          I   N=          19
           1           1           1           1           1           1
           1           1           1           2           2           2
           2           2           3           3           3           3
           3
Primitive exponents                        R   N=          37
  1.17200000E+04  1.75900000E+03  4.00800000E+02  1.13700000E+02  3.70300000E+01
  1.32700000E+01  5.02500000E+00  1.17200000E+04  4.00800000E+02  1.13700000E+02
  3.70300000E+01  1.32700000E+01  5.02500000E+00  1.01300000E+00  3.02300000E-01
  7.89600000E-02  1.77000000E+01  3.85400000E+00  1.04600000E+00  2.75300000E-01
  6.85600000E-02  1.18500000E+00  3.32000000E-01  1.30100000E+01  1.96200000E+00
  4.44600000E-01  1.22000000E-01  2.97400000E-02  7.27000000E-01  1.41000000E-01
  1.30100000E+01  1.96200000E+00  4.44600000E-01  1.22000000E-01  2.97400000E-02
  7.27000000E-01  1.41000000E-01
Contraction coefficients                   R   N=          37
  7.11864434E-04  5.48520199E-03  2.79099296E-02  1.05133208E-01  2.84002490E-01
  4.51673946E-01  2.73208126E-01  7.69030046E-06  3.13484579E-04 -2.96614853E-03
 -1.08753543E-02 -1.20753817E-01 -1.06275264E-01  1.09597548E+00  1.00000000E+00
  1.00000000E+00  6.26791663E-02  3.33536566E-01  7.41239642E-01  1.00000000E+00
  1.00000000E+00  1.00000000E+00  1.00000000E+00  3.34987264E-02  2.34800801E-01
  8.13682958E-01  1.00000000E+00  1.00000000E+00  1.00000000E+00  1.00000000E+00
  3.34987264E-02  2.34800801E-01  8.13682958E-01  1.00000000E+00  1.00000000E+00
  1.00000000E+00  1.00000000E+00
Coordinates of each shell                  R   N=          57
 -3.94430453E-31  0.00000000E+00  2.25076607E-01 -3.94430453E-31  0.00000000E+00
  2.25076607E-01 -3.94430453E-31  0.00000000E+00  2.25076607E-01 -3.94430453E-31
  0.00000000E+00  2.25076607E-01 -3.94430453E-31  0.00000000E+00  2.25076607E-01
 -3.94430453E-31  0.00000000E+00  2.25076607E-01 -3.94430453E-31  0.00000000E+00
  2.25076607E-01 -3.94430453E-31  0.00000000E+00  2.25076607E-01 -3.94430453E-31
  0.00000000E+00  2.25076607E-01 -1.18329136E-30  1.43714391E+00 -9.00306427E-01
 -1.18329136E-30  1.43714391E+00 -9.00306427E-01 -1.18329136E-30  1.43714391E+00
 -9.00306427E-01 -1.18329136E-30  1.43714391E+00 -9.00306427E-01 -1.18329136E-30
  1.43714391E+00 -9.00306427E-01 -1.75999369E-16 -1.43714391E+00 -9.00306427E-01
 -1.75999369E-16 -1.43714391E+00 -9.00306427E-01 -1.75999369E-16 -1.43714391E+00
 -9.00306427E-01 -1.75999369E-16 -1.43714391E+00 -9.00306427E-01 -1.75999369E-16
 -1.43714391E+00 -9.00306427E-01
Constraint Structure                       R   N=           9
 -3.94430453E-31  0.00000000E+00  2.25076607E-01 -1.18329136E-30  1.43714391E+00
 -9.00306427E-01 -1.75999369E-16 -1.43714391E+00 -9.00306427E-01
Num ILSW                                   I              100
ILSW                                       I   N=         100
           0           0           0           0           2           0
           0           0           0           0           0          -1
           0           0           0           0           2           0
           0           0           1           0           1           0
           1           0           0           0           0           0
           0           0      100000           0          -1           0
           0           0           0           0           0           0
           0           0           0           1           1           0
           0           0           1           0           0           0
           0           0           4          41           0           0
           0           0           0           0           0           0
           0           0           0           0           0           0
           0           0           0           0           0           0
           0           0           0           0           0           0
           0           0           0           0           0           0
           0           0           0           0           0           0
           0           0           0           0
Num RLSW                                   I               41
RLSW                                       R   N=          41
  1.00000000E+00  1.00000000E+00  1.00000000E+00  1.00000000E+00  1.00000000E+00
  0.00000000E+00  0.00000000E+00  1.00000000E+00  0.00000000E+00  0.00000000E+00
  0.00000000E+00  0.00000000E+00  1.00000000E+00  0.00000000E+00  0.00000000E+00
  0.00000000E+00  0.00000000E+00  1.00000000E+00  0.00000000E+00  0.00000000E+00
  0.00000000E+00  0.00000000E+00  1.00000000E+00  0.00000000E+00  0.00000000E+00
  0.00000000E+00  0.00000000E+00  1.00000000E+00  0.00000000E+00  0.00000000E+00
  0.00000000E+00  0.00000000E+00  1.00000000E+00  0.00000000E+00  0.00000000E+00
  0.00000000E+00  0.00000000E+00  0.00000000E+00  1.00000000E+00  1.00000000E+00
  0.00000000E+00
MxBond                                     I                2
NBond                                      I   N=           3
           2           1           1
IBond                                      I   N=           6
           2           3           1           0           1           0
RBond                                      R   N=           6
  3.00000000E+00  3.00000000E+00  3.00000000E+00  0.00000000E+00  3.00000000E+00
  0.00000000E+00
Virial Ratio                               R      2.001931830794257E+00
SCF Energy                                 R     -7.604076139518099E+01
MP2 Energy                                 R     -7.626090976525457E+01
Total Energy                               R     -7.626090976525457E+01
Post-SCF wavefunction norm                 R      1.455800040863679E+00
RMS Force                                  R      2.192605766793843E-09
RMS Density                                R      5.829767793982072E-10
Job Status                                 I                1
Nuclear derivative order                   I                3
External E-field                           R   N=          35
  0.00000000E+00  0.00000000E+00  0.00000000E+00  0.00000000E+00  0.00000000E+00
  0.00000000E+00  0.00000000E+00  0.00000000E+00  0.00000000E+00  0.00000000E+00
  0.00000000E+00  0.00000000E+00  0.00000000E+00  0.00000000E+00  0.00000000E+00
  0.00000000E+00  0.00000000E+00  0.00000000E+00  0.00000000E+00  0.00000000E+00
  0.00000000E+00  0.00000000E+00  0.00000000E+00  0.00000000E+00  0.00000000E+00
  0.00000000E+00  0.00000000E+00  0.00000000E+00  0.00000000E+00  0.00000000E+00
  0.00000000E+00  0.00000000E+00  0.00000000E+00  0.00000000E+00  0.00000000E+00
IOpCl                                      I                0
IROHF                                      I                0
Alpha Orbital Energies                     R   N=          41
 -2.05789996E+01 -1.35268773E+00 -7.13327318E-01 -5.85216504E-01 -5.08918410E-01
  3.52299873E-02  5.79400038E-02  1.74095360E-01  1.97172766E-01  2.22057776E-01
  2.31910372E-01  2.87913657E-01  3.31314271E-01  3.85501056E-01  4.01590867E-01
  4.31587295E-01  5.38562372E-01  6.45896157E-01  6.58121471E-01  8.06213468E-01
  9.29261488E-01  1.10251949E+00  1.11663329E+00  1.14805305E+00  1.30154392E+00
  1.46329785E+00  1.47976916E+00  1.58198004E+00  1.99852366E+00  2.00466907E+00
  2.10572049E+00  2.35727759E+00  2.46524062E+00  2.61129488E+00  2.71105782E+00
  2.97001393E+00  3.67290962E+00  3.68919360E+00  3.70093543E+00  4.01177971E+00
  4.29261366E+00
Alpha MO coefficients                      R   N=        1681
  9.97196325E-01  1.62715703E-02 -7.25014650E-03 -4.48457946E-03  0.00000000E+00
  0.00000000E+00 -1.63039195E-03  0.00000000E+00  0.00000000E+00  1.54887820E-03
  0.00000000E+00  0.00000000E+00  6.73100448E-04  2.30902620E-06  0.00000000E+00
  0.00000000E+00 -9.26442226E-05  0.00000000E+00  9.24319467E-06  0.00000000E+00
  0.00000000E+00  2.76134643E-04  0.00000000E+00  3.54714731E-04  3.57162384E-03
  3.17317532E-04  0.00000000E+00  3.35349910E-04 -2.78286412E-04  0.00000000E+00
 -1.18061871E-03  1.01682164E-03  3.54714731E-04  3.57162384E-03  3.17317532E-04
  0.00000000E+00 -3.35349910E-04 -2.78286412E-04  0.00000000E+00  1.18061871E-03
  1.01682164E-03 -2.08888384E-01  4.48758556E-01  3.81202713E-01  5.89820072E-02
  0.00000000E+00  0.00000000E+00 -7.73639828E-02  0.00000000E+00  0.00000000E+00
  1.70088652E-02  0.00000000E+00  0.00000000E+00 -1.15032638E-02  2.82299817E-03
  0.00000000E+00  0.00000000E+00 -6.64187188E-03  0.00000000E+00 -5.94279261E-03
  0.00000000E+00  0.00000000E+00  1.89399688E-02  0.00000000E+00  2.02467207E-01
 -2.62351031E-02 -2.05362361E-03  0.00000000E+00 -3.65660707E-02  2.23403175E-02
  0.00000000E+00  5.11197573E-03 -8.07248744E-03  2.02467207E-01 -2.62351031E-02
 -2.05362361E-03  0.00000000E+00  3.65660707E-02  2.23403175E-02  0.00000000E+00
 -5.11197573E-03 -8.07248744E-03  0.00000000E+00  0.00000000E+00  0.00000000E+00
  0.00000000E+00  0.00000000E+00  4.98906859E-01  0.00000000E+00  0.00000000E+00
  1.97970060E-01  0.00000000E+00  0.00000000E+00  1.96751560E-02  0.00000000E+00
  0.00000000E+00  0.00000000E+00 -2.84017876E-02  0.00000000E+00  0.00000000E+00
  0.00000000E+00  0.00000000E+00  3.01091477E-02  0.00000000E+00  0.00000000E+00
  3.46926138E-01  8.03093246E-02 -4.74274230E-03  0.00000000E+00 -2.57734629E-02
  3.47523460E-02  0.00000000E+00 -3.39198371E-03  9.81430094E-04 -3.46926138E-01
 -8.03093246E-02  4.74274230E-03  0.00000000E+00 -2.57734629E-02 -3.47523460E-02
  0.00000000E+00 -3.39198371E-03 -9.81430094E-04 -6.74268242E-02  1.51967958E-01
  3.16440263E-01  7.61940007E-02  0.00000000E+00  0.00000000E+00  5.47363045E-01
  0.00000000E+00  0.00000000E+00  3.23900740E-01  0.00000000E+00  0.00000000E+00
  3.88140041E-02 -1.45664195E-02  0.00000000E+00  0.00000000E+00  4.37942772E-03
  0.00000000E+00 -1.59693168E-02  0.00000000E+00  0.00000000E+00 -1.11819952E-02
  0.00000000E+00 -2.12572838E-01 -5.92314457E-02 -3.58067002E-03  0.00000000E+00
  3.08689086E-02 -1.29041347E-03  0.00000000E+00  2.01245815E-03  1.32970988E-02
 -2.12572838E-01 -5.92314457E-02 -3.58067002E-03  0.00000000E+00 -3.08689086E-02
 -1.29041347E-03  0.00000000E+00 -2.01245815E-03  1.32970988E-02  0.00000000E+00
  0.00000000E+00  0.00000000E+00  0.00000000E+00  6.28787968E-01  0.00000000E+00
  0.00000000E+00  4.50508635E-01  0.00000000E+00  0.00000000E+00  6.89252650E-02
  0.00000000E+00  0.00000000E+00  0.00000000E+00 -1.37975031E-02  0.00000000E+00
  0.00000000E+00  0.00000000E+00  0.00000000E+00 -1.93901762E-02  0.00000000E+00
  0.00000000E+00  0.00000000E+00  0.00000000E+00  0.00000000E+00  0.00000000E+00
  2.58338814E-02  0.00000000E+00  0.00000000E+00  1.59767043E-02  0.00000000E+00
  0.00000000E+00  0.00000000E+00  0.00000000E+00  0.00000000E+00  2.58338814E-02
  0.00000000E+00  0.00000000E+00  1.59767043E-02  0.00000000E+00  0.00000000E+00
 -2.79301066E-02  5.33354529E-02  2.18599486E-01  1.54643294E+00  0.00000000E+00
  0.00000000E+00 -6.10327358E-02  0.00000000E+00  0.00000000E+00 -1.33530638E-01
  0.00000000E+00  0.00000000E+00 -2.15796783E-01  2.59075946E-03  0.00000000E+00
  0.00000000E+00 -4.99084994E-05  0.00000000E+00 -1.41344955E-03  0.00000000E+00
  0.00000000E+00 -1.04312522E-02  0.00000000E+00 -1.96825838E-02 -4.73175915E-01
 -8.34072591E-01  0.00000000E+00 -4.65141955E-03  2.32972427E-03  0.00000000E+00
  8.19827143E-02 -7.71110788E-02 -1.96825838E-02 -4.73175915E-01 -8.34072591E-01
  0.00000000E+00  4.65141955E-03  2.32972427E-03  0.00000000E+00 -8.19827143E-02
 -7.71110788E-02  0.00000000E+00  0.00000000E+00  0.00000000E+00  0.00000000E+00
  0.00000000E+00 -6.71787772E-02  0.00000000E+00  0.00000000E+00 -1.37945572E-01
  0.00000000E+00  0.00000000E+00 -8.22341877E-01  0.00000000E+00  0.00000000E+00
  0.00000000E+00  9.69581104E-04  0.00000000E+00  0.00000000E+00  0.00000000E+00
  0.00000000E+00  1.90572656E-02  0.00000000E+00  0.00000000E+00 -5.54100396E-04
  5.39546781E-01  2.94882178E+00  0.00000000E+00  7.26519852E-04 -4.23042290E-03
  0.00000000E+00 -1.01757877E-01  1.27975038E-01  5.54100396E-04 -5.39546781E-01
 -2.94882178E+00  0.00000000E+00  7.26519852E-04  4.23042290E-03  0.00000000E+00
 -1.01757877E-01 -1.27975038E-01  7.57394960E-03 -8.35536280E-02  3.61681525E-01
  4.10201049E+00  0.00000000E+00  0.00000000E+00  1.79625137E-01  0.00000000E+00
  0.00000000E+00  8.56793215E-03  0.00000000E+00  0.00000000E+00 -1.91624503E+00
 -1.13031823E-02  0.00000000E+00  0.00000000E+00  3.12903467E-03  0.00000000E+00
  3.88808043E-02  0.00000000E+00  0.00000000E+00 -4.91693844E-02  0.00000000E+00
 -1.18502148E-02 -1.76607532E+00 -6.28375807E-01  0.00000000E+00  3.36185107E-02
 -2.39016994E-02  0.00000000E+00  3.32506952E-01 -1.62600331E-01 -1.18502148E-02
 -1.76607532E+00 -6.28375807E-01  0.00000000E+00 -3.36185107E-02 -2.39016994E-02
  0.00000000E+00 -3.32506952E-01 -1.62600331E-01  0.00000000E+00  0.00000000E+00
  0.00000000E+00  0.00000000E+00 -1.74854611E-01  0.00000000E+00  0.00000000E+00
 -2.50140188E-01  0.00000000E+00  0.00000000E+00  1.43734133E+00  0.00000000E+00
  0.00000000E+00  0.00000000E+00  1.70187379E-02  0.00000000E+00  0.00000000E+00
  0.00000000E+00  0.00000000E+00 -5.77801267E-02  0.00000000E+00  0.00000000E+00
  0.00000000E+00  0.00000000E+00  0.00000000E+00  0.00000000E+00  9.35831144E-03
  0.00000000E+00  0.00000000E+00 -2.78447057E-01  0.00000000E+00  0.00000000E+00
  0.00000000E+00  0.00000000E+00  0.00000000E+00  9.35831144E-03  0.00000000E+00
  0.00000000E+00 -2.78447057E-01  0.00000000E+00  0.00000000E+00  6.04098696E-02
 -1.82737084E-01 -1.81406687E-02  2.75321960E+00  0.00000000E+00  0.00000000E+00
  5.50765773E-02  0.00000000E+00  0.00000000E+00 -1.66757148E-01  0.00000000E+00
  0.00000000E+00  5.24136408E-01  7.50871479E-03  0.00000000E+00  0.00000000E+00
 -3.59036670E-03  0.00000000E+00 -4.19722621E-02  0.00000000E+00  0.00000000E+00
 -3.06737116E-02  0.00000000E+00  4.50596701E-02 -4.00118715E-01 -6.68343697E-01
  0.00000000E+00  1.90376099E-02 -1.09298710E-02  0.00000000E+00  4.21772631E-01
 -4.75713592E-01  4.50596701E-02 -4.00118715E-01 -6.68343697E-01  0.00000000E+00
 -1.90376099E-02 -1.09298710E-02  0.00000000E+00 -4.21772631E-01 -4.75713592E-01
  0.00000000E+00  0.00000000E+00  0.00000000E+00  0.00000000E+00  0.00000000E+00
 -1.69633299E-01  0.00000000E+00  0.00000000E+00  2.53843265E-01  0.00000000E+00
  0.00000000E+00  3.08918805E+00  0.00000000E+00  0.00000000E+00  0.00000000E+00
  9.02639276E-03  0.00000000E+00  0.00000000E+00  0.00000000E+00  0.00000000E+00
 -1.00383787E-01  0.00000000E+00  0.00000000E+00 -7.74802021E-02 -2.63479105E+00
 -2.67870480E+00  0.00000000E+00  3.86044932E-02 -2.23876869E-02  0.00000000E+00
  5.90256024E-01 -5.59923930E-01  7.74802021E-02  2.63479105E+00  2.67870480E+00
  0.00000000E+00  3.86044932E-02  2.23876869E-02  0.00000000E+00  5.90256024E-01
  5.59923930E-01  0.00000000E+00  0.00000000E+00  0.00000000E+00  0.00000000E+00
  0.00000000E+00 -2.25144027E-01  0.00000000E+00  0.00000000E+00 -2.71396195E-01
  0.00000000E+00  0.00000000E+00 -9.02722083E-01  0.00000000E+00  0.00000000E+00
  0.00000000E+00 -1.59902334E-02  0.00000000E+00  0.00000000E+00  0.00000000E+00
  0.00000000E+00  6.93147136E-02  0.00000000E+00  0.00000000E+00  1.30077517E-01
  9.73765211E-01 -3.05537649E-01  0.00000000E+00 -1.34727015E-02 -3.07806935E-04
  0.00000000E+00  4.29307514E-01 -4.72167157E-01 -1.30077517E-01 -9.73765211E-01
  3.05537649E-01  0.00000000E+00 -1.34727015E-02  3.07806935E-04  0.00000000E+00
  4.29307514E-01  4.72167157E-01 -8.97873805E-03 -8.69164492E-03  2.22560915E-01
  4.35233301E+00  0.00000000E+00  0.00000000E+00 -9.05720360E-02  0.00000000E+00
  0.00000000E+00 -2.40708954E-01  0.00000000E+00  0.00000000E+00 -5.99235760E-01
  2.47826061E-02  0.00000000E+00  0.00000000E+00  2.49491363E-02  0.00000000E+00
 -8.50980622E-02  0.00000000E+00  0.00000000E+00 -1.03608217E-01  0.00000000E+00
 -1.11857874E-01 -2.34861635E+00 -2.56600678E-01  0.00000000E+00  9.90226152E-03
 -2.91197242E-02  0.00000000E+00 -3.68306824E-01 -4.71465812E-01 -1.11857874E-01
 -2.34861635E+00 -2.56600678E-01  0.00000000E+00 -9.90226152E-03 -2.91197242E-02
  0.00000000E+00  3.68306824E-01 -4.71465812E-01  0.00000000E+00  0.00000000E+00
  0.00000000E+00  0.00000000E+00  0.00000000E+00  0.00000000E+00  0.00000000E+00
  0.00000000E+00  0.00000000E+00  0.00000000E+00  0.00000000E+00  0.00000000E+00
  0.00000000E+00  0.00000000E+00  0.00000000E+00  0.00000000E+00  0.00000000E+00
  3.90488472E-02  0.00000000E+00  0.00000000E+00  0.00000000E+00  0.00000000E+00
 -1.28291607E-01  0.00000000E+00  0.00000000E+00  0.00000000E+00  1.84459200E-03
  0.00000000E+00  0.00000000E+00  1.13586397E+00  0.00000000E+00  0.00000000E+00
  0.00000000E+00  0.00000000E+00  0.00000000E+00 -1.84459200E-03  0.00000000E+00
  0.00000000E+00 -1.13586397E+00  0.00000000E+00  0.00000000E+00  6.32404081E-03
 -1.59301625E-02 -1.92028741E-02  4.40273213E+00  0.00000000E+00  0.00000000E+00
 -1.88117163E-01  0.00000000E+00  0.00000000E+00 -7.70770469E-01  0.00000000E+00
  0.00000000E+00 -1.82331714E+00 -1.97491671E-02  0.00000000E+00  0.00000000E+00
 -9.83421370E-03  0.00000000E+00  1.03685762E-01  0.00000000E+00  0.00000000E+00
  1.94932024E-02  0.00000000E+00 -6.18462338E-02 -2.34047179E+00 -2.87254167E-01
  0.00000000E+00  4.81623364E-02 -4.90823272E-03  0.00000000E+00  3.51477788E-01
  6.86203808E-01 -6.18462338E-02 -2.34047179E+00 -2.87254167E-01  0.00000000E+00
 -4.81623364E-02 -4.90823272E-03  0.00000000E+00 -3.51477788E-01  6.86203808E-01
  0.00000000E+00  0.00000000E+00  0.00000000E+00  0.00000000E+00 -1.49389996E-01
  0.00000000E+00  0.00000000E+00 -6.45036242E-01  0.00000000E+00  0.00000000E+00
 -1.15904065E+00  0.00000000E+00  0.00000000E+00  0.00000000E+00 -2.35958294E-02
  0.00000000E+00  0.00000000E+00  0.00000000E+00  0.00000000E+00  7.25773107E-02
  0.00000000E+00  0.00000000E+00  0.00000000E+00  0.00000000E+00  0.00000000E+00
  0.00000000E+00  1.02813507E-03  0.00000000E+00  0.00000000E+00  1.19087077E+00
  0.00000000E+00  0.00000000E+00  0.00000000E+00  0.00000000E+00  0.00000000E+00
  1.02813507E-03  0.00000000E+00  0.00000000E+00  1.19087077E+00  0.00000000E+00
  0.00000000E+00  0.00000000E+00  0.00000000E+00  0.00000000E+00  0.00000000E+00
  0.00000000E+00 -7.91361272E-02  0.00000000E+00  0.00000000E+00 -1.30906412E-01
  0.00000000E+00  0.00000000E+00 -1.91910902E+00  0.00000000E+00  0.00000000E+00
  0.00000000E+00  1.73143466E-02  0.00000000E+00  0.00000000E+00  0.00000000E+00
  0.00000000E+00 -4.11696492E-02  0.00000000E+00  0.00000000E+00 -3.22486104E-02
 -1.44026788E+00  7.45478943E-01  0.00000000E+00 -2.25944751E-02 -2.38407520E-02
  0.00000000E+00  2.30649525E+00  1.04325806E+00  3.22486104E-02  1.44026788E+00
 -7.45478943E-01  0.00000000E+00 -2.25944751E-02  2.38407520E-02  0.00000000E+00
  2.30649525E+00 -1.04325806E+00 -1.17454121E-01  3.14761242E-02  2.77543763E+00
  5.80841670E+00  0.00000000E+00  0.00000000E+00 -2.02070170E-01  0.00000000E+00
  0.00000000E+00 -6.11351442E-01  0.00000000E+00  0.00000000E+00 -6.92046854E-01
  9.40879883E-03  0.00000000E+00  0.00000000E+00 -7.64062074E-03  0.00000000E+00
 -3.33035105E-03  0.00000000E+00  0.00000000E+00  4.89687613E-02  0.00000000E+00
 -1.53174182E-01 -3.42555264E+00 -5.56407332E-01  0.00000000E+00 -8.03826411E-03
 -1.19967165E-03  0.00000000E+00  1.32762738E+00 -1.16394176E+00 -1.53174182E-01
 -3.42555264E+00 -5.56407332E-01  0.00000000E+00  8.03826411E-03 -1.19967165E-03
  0.00000000E+00 -1.32762738E+00 -1.16394176E+00  0.00000000E+00  0.00000000E+00
  0.00000000E+00  0.00000000E+00  0.00000000E+00 -2.74768221E-01  0.00000000E+00
  0.00000000E+00 -1.78913416E+00  0.00000000E+00  0.00000000E+00 -2.46189946E+00
  0.00000000E+00  0.00000000E+00  0.00000000E+00  2.38700424E-02  0.00000000E+00
  0.00000000E+00  0.00000000E+00  0.00000000E+00  1.03089927E-01  0.00000000E+00
  0.00000000E+00  1.21281335E-01  8.29809249E+00  1.40427182E+00  0.00000000E+00
 -2.41210943E-02  4.17728487E-02  0.00000000E+00 -3.16823110E+00  1.69112104E+00
 -1.21281335E-01 -8.29809249E+00 -1.40427182E+00  0.00000000E+00 -2.41210943E-02
 -4.17728487E-02  0.00000000E+00 -3.16823110E+00 -1.69112104E+00  0.00000000E+00
  0.00000000E+00  0.00000000E+00  0.00000000E+00  0.00000000E+00  2.59869539E-01
  0.00000000E+00  0.00000000E+00 -4.15670202E-01  0.00000000E+00  0.00000000E+00
 -1.24549057E+00  0.00000000E+00  0.00000000E+00  0.00000000E+00  5.70825417E-02
  0.00000000E+00  0.00000000E+00  0.00000000E+00  0.00000000E+00  7.07894878E-01
  0.00000000E+00  0.00000000E+00 -4.24791860E-01  3.04314140E+00  2.18514874E-01
  0.00000000E+00 -1.28875873E-01  1.60167769E-01  0.00000000E+00 -5.42570232E-01
 -1.99995859E-02  4.24791860E-01 -3.04314140E+00 -2.18514874E-01  0.00000000E+00
 -1.28875873E-01 -1.60167769E-01  0.00000000E+00 -5.42570232E-01  1.99995859E-02
  2.19140302E-03 -2.00409784E-01  1.08288064E+00  4.78168707E+00  0.00000000E+00
  0.00000000E+00  8.26997979E-02  0.00000000E+00  0.00000000E+00 -2.79520182E-01
  0.00000000E+00  0.00000000E+00 -1.23893090E+00  5.13926504E-04  0.00000000E+00
  0.00000000E+00 -3.81104486E-02  0.00000000E+00  1.15174456E-01  0.00000000E+00
  0.00000000E+00 -7.38389069E-01  0.00000000E+00  4.99764583E-01 -3.28569121E+00
 -2.05060130E-01  0.00000000E+00  1.81870815E-01 -9.15490662E-02  0.00000000E+00
  1.82821427E-01 -3.16151897E-01  4.99764583E-01 -3.28569121E+00 -2.05060130E-01
  0.00000000E+00 -1.81870815E-01 -9.15490662E-02  0.00000000E+00 -1.82821427E-01
 -3.16151897E-01  0.00000000E+00  0.00000000E+00  0.00000000E+00  0.00000000E+00
 -1.89722836E-01  0.00000000E+00  0.00000000E+00 -3.02884609E-02  0.00000000E+00
  0.00000000E+00 -7.25273599E-01  0.00000000E+00  0.00000000E+00  0.00000000E+00
 -2.11387481E-02  0.00000000E+00  0.00000000E+00  0.00000000E+00  0.00000000E+00
  1.12462674E+00  0.00000000E+00  0.00000000E+00  0.00000000E+00  0.00000000E+00
  0.00000000E+00  0.00000000E+00 -1.76563433E-02  0.00000000E+00  0.00000000E+00
  5.82404540E-01  0.00000000E+00  0.00000000E+00  0.00000000E+00  0.00000000E+00
  0.00000000E+00 -1.76563433E-02  0.00000000E+00  0.00000000E+00  5.82404540E-01
  0.00000000E+00  0.00000000E+00  1.53731115E-02 -1.80590946E-02 -5.58066517E-01
 -8.75090572E-01  0.00000000E+00  0.00000000E+00 -1.29126865E-01  0.00000000E+00
  0.00000000E+00  9.18348932E-02  0.00000000E+00  0.00000000E+00 -4.86339293E-01
 -1.78724700E-02  0.00000000E+00  0.00000000E+00  2.01621849E-02  0.00000000E+00
  1.14105254E+00  0.00000000E+00  0.00000000E+00  7.91541875E-02  0.00000000E+00
 -1.03303872E-01  6.34459042E-01  5.65718527E-02  0.00000000E+00 -9.14524979E-02
 -2.52753604E-03  0.00000000E+00  7.74483720E-02  6.63646099E-01 -1.03303872E-01
  6.34459042E-01  5.65718527E-02  0.00000000E+00  9.14524979E-02 -2.52753604E-03
  0.00000000E+00 -7.74483720E-02  6.63646099E-01  0.00000000E+00  0.00000000E+00
  0.00000000E+00  0.00000000E+00  0.00000000E+00  0.00000000E+00  0.00000000E+00
  0.00000000E+00  0.00000000E+00  0.00000000E+00  0.00000000E+00  0.00000000E+00
  0.00000000E+00  0.00000000E+00  0.00000000E+00  0.00000000E+00  0.00000000E+00
 -1.83004275E-02  0.00000000E+00  0.00000000E+00  0.00000000E+00  0.00000000E+00
  1.23290730E+00  0.00000000E+00  0.00000000E+00  0.00000000E+00  3.77229778E-02
  0.00000000E+00  0.00000000E+00 -7.30536687E-01  0.00000000E+00  0.00000000E+00
  0.00000000E+00  0.00000000E+00  0.00000000E+00 -3.77229778E-02  0.00000000E+00
  0.00000000E+00  7.30536687E-01  0.00000000E+00  0.00000000E+00 -9.61051676E-03
 -2.14127013E-01  1.57364464E+00  3.20391016E+00  0.00000000E+00  0.00000000E+00
  5.26823527E-01  0.00000000E+00  0.00000000E+00 -1.12969331E+00  0.00000000E+00
  0.00000000E+00 -7.11557928E-01  6.73820799E-03  0.00000000E+00  0.00000000E+00
 -9.38300384E-02  0.00000000E+00  3.17038876E-01  0.00000000E+00  0.00000000E+00
  7.99067813E-01  0.00000000E+00  5.00020476E-01 -2.41913918E+00 -1.48908588E-01
  0.00000000E+00  3.26719934E-01 -1.85823870E-01  0.00000000E+00  6.56878060E-01
 -1.13170720E-01  5.00020476E-01 -2.41913918E+00 -1.48908588E-01  0.00000000E+00
 -3.26719934E-01 -1.85823870E-01  0.00000000E+00 -6.56878060E-01 -1.13170720E-01
  0.00000000E+00  0.00000000E+00  0.00000000E+00  0.00000000E+00  0.00000000E+00
  5.93702842E-01  0.00000000E+00  0.00000000E+00 -1.93799304E+00  0.00000000E+00
  0.00000000E+00 -9.92528957E-01  0.00000000E+00  0.00000000E+00  0.00000000E+00
  1.11436536E-01  0.00000000E+00  0.00000000E+00  0.00000000E+00  0.00000000E+00
 -7.66825623E-01  0.00000000E+00  0.00000000E+00 -3.53343465E-01  4.32158843E+00
  2.19729813E-01  0.00000000E+00 -2.77984773E-01  2.99809845E-01  0.00000000E+00
 -1.21756009E+00  1.03454497E+00  3.53343465E-01 -4.32158843E+00 -2.19729813E-01
  0.00000000E+00 -2.77984773E-01 -2.99809845E-01  0.00000000E+00 -1.21756009E+00
 -1.03454497E+00  0.00000000E+00  0.00000000E+00  0.00000000E+00  0.00000000E+00
 -9.82195579E-01  0.00000000E+00  0.00000000E+00  1.59851029E+00  0.00000000E+00
  0.00000000E+00  1.08932096E-01  0.00000000E+00  0.00000000E+00  0.00000000E+00
 -1.94937483E-03  0.00000000E+00  0.00000000E+00  0.00000000E+00  0.00000000E+00
 -3.90394138E-01  0.00000000E+00  0.00000000E+00  0.00000000E+00  0.00000000E+00
  0.00000000E+00  0.00000000E+00 -6.55346391E-03  0.00000000E+00  0.00000000E+00
 -5.51508545E-01  0.00000000E+00  0.00000000E+00  0.00000000E+00  0.00000000E+00
  0.00000000E+00 -6.55346391E-03  0.00000000E+00  0.00000000E+00 -5.51508545E-01
  0.00000000E+00  0.00000000E+00  5.39931334E-02 -5.14392737E-01  2.70898167E-01
 -1.63268029E+00  0.00000000E+00  0.00000000E+00 -7.09162694E-01  0.00000000E+00