title                                                                   
Freq      RMP2-FC                                                     Aug-CC-pVTZ         
Number of atoms                            I                4
Info1-9                                    I   N=           9
          35          20        1002           0           0         100
           6           2           1
Full Title                                 C   N=           1
title       
Route                                      C   N=           4
#p opt=(verytight) mp2/aug-cc-pvtz freq=anh     
Charge                                     I                0
Multiplicity                               I                1
Number of electrons                        I               10
Number of alpha electrons                  I                5
Number of beta electrons                   I                5
Number of basis functions                  I              115
Number of independent functions            I              115
Number of point charges in /Mol/           I                0
Number of translation vectors              I                0
Atomic numbers                             I   N=           4
           7           1           1           1
Nuclear charges                            R   N=           4
  7.00000000E+00  1.00000000E+00  1.00000000E+00  1.00000000E+00
Current cartesian coordinates              R   N=          12
  7.91002806E-18  2.92310849E-17  2.15451050E-01  8.00104347E-17  1.77268272E+00
 -5.02719117E-01 -1.53518826E+00 -8.86341358E-01 -5.02719117E-01  1.53518826E+00
 -8.86341358E-01 -5.02719117E-01
Number of symbols in /Mol/                 I                0
Force Field                                I                0
Atom Types                                 C   N=           4
                                                
Int Atom Types                             I   N=           4
           0           0           0           0
MM charges                                 R   N=           4
  0.00000000E+00  0.00000000E+00  0.00000000E+00  0.00000000E+00
Integer atomic weights                     I   N=           4
          14           1           1           1
Real atomic weights                        R   N=           4
  1.40030740E+01  1.00782504E+00  1.00782504E+00  1.00782504E+00
Atom fragment info                         I   N=           4
           0           0           0           0
Atom residue num                           I   N=           4
           0           0           0           0
Nuclear spins                              I   N=           4
           2           1           1           1
Nuclear ZEff                               R   N=           4
 -4.55000000E+00 -1.00000000E+00 -1.00000000E+00 -1.00000000E+00
Nuclear ZNuc                               R   N=           4
  7.00000000E+00  1.00000000E+00  1.00000000E+00  1.00000000E+00
Nuclear QMom                               R   N=           4
  2.04400000E+00  0.00000000E+00  0.00000000E+00  0.00000000E+00
Nuclear GFac                               R   N=           4
  4.03761000E-01  2.79284600E+00  2.79284600E+00  2.79284600E+00
MicOpt                                     I   N=           4
          -1          -1          -1          -1
Number of residues                         I                0
Number of secondary structures             I                0
Redundant internal dimensions              I   N=           4
           7           3           3           1
Redundant internal coordinate indices      I   N=          28
           1           2           0           0           1           3
           0           0           1           4           0           0
           2           1           3           0           2           1
           4           0           3           1           4           0
           2           1           4           3
Redundant internal coordinates             R   N=           7
  1.91263494E+00  1.91263494E+00  1.91263494E+00  1.86347071E+00  1.86347071E+00
  1.86347071E+00 -1.98833176E+00
ZRed-IntVec                                I   N=           7
           0           0           0           0           0           0
           0
ZRed-FPVec                                 R   N=           7
  0.00000000E+00  0.00000000E+00  0.00000000E+00  0.00000000E+00  0.00000000E+00
  0.00000000E+00  0.00000000E+00
ZRed-Constraint1                           R   N=           7
  1.91263494E+00  1.91263494E+00  1.91263494E+00  1.86347071E+00  1.86347071E+00
  1.86347071E+00 -1.98833176E+00
ZRed-Constraint2                           R   N=           7
  2.05258319E+00  2.05258319E+00  2.05258319E+00  1.91063324E+00  1.91063324E+00
  1.91063324E+00 -2.09439510E+00
SymInf integers                            I   N=          26
           2           2           1           1           1          -1
           1           1           0           0           0           0
           0           0           0           0           0           0
           0           0           0           0           0           0
           0           0
RotTr to input orientation                 R   N=          12
 -8.66025404E-01 -5.00000000E-01  1.47842811E-15 -1.66666667E-01  2.88675135E-01
  9.42809042E-01 -4.71404521E-01  8.16496581E-01 -3.33333333E-01  8.94681765E-02
 -1.54963427E-01  6.32635543E-02
Number of contracted shells                I               41
Number of primitive shells                 I               60
Pure/Cartesian d shells                    I                0
Pure/Cartesian f shells                    I                0
Highest angular momentum                   I                3
Largest degree of contraction              I                7
Shell types                                I   N=          41
           0           0           0           0           0           1
           1           1           1          -2          -2          -2
          -3          -3           0           0           0           0
           1           1           1          -2          -2           0
           0           0           0           1           1           1
          -2          -2           0           0           0           0
           1           1           1          -2          -2
Number of primitives per shell             I   N=          41
           7           6           1           1           1           3
           1           1           1           1           1           1
           1           1           3           1           1           1
           1           1           1           1           1           3
           1           1           1           1           1           1
           1           1           3           1           1           1
           1           1           1           1           1
Shell to atom map                          I   N=          41
           1           1           1           1           1           1
           1           1           1           1           1           1
           1           1           2           2           2           2
           2           2           2           2           2           3
           3           3           3           3           3           3
           3           3           4           4           4           4
           4           4           4           4           4
Primitive exponents                        R   N=          60
  1.14200000E+04  1.71200000E+03  3.89300000E+02  1.10000000E+02  3.55700000E+01
  1.25400000E+01  4.64400000E+00  3.89300000E+02  1.10000000E+02  3.55700000E+01
  1.25400000E+01  4.64400000E+00  5.11800000E-01  1.29300000E+00  1.78700000E-01
  5.76000000E-02  2.66300000E+01  5.94800000E+00  1.74200000E+00  5.55000000E-01
  1.72500000E-01  4.91000000E-02  1.65400000E+00  4.69000000E-01  1.51000000E-01
  1.09300000E+00  3.64000000E-01  3.38700000E+01  5.09500000E+00  1.15900000E+00
  3.25800000E-01  1.02700000E-01  2.52600000E-02  1.40700000E+00  3.88000000E-01
  1.02000000E-01  1.05700000E+00  2.47000000E-01  3.38700000E+01  5.09500000E+00
  1.15900000E+00  3.25800000E-01  1.02700000E-01  2.52600000E-02  1.40700000E+00
  3.88000000E-01  1.02000000E-01  1.05700000E+00  2.47000000E-01  3.38700000E+01
  5.09500000E+00  1.15900000E+00  3.25800000E-01  1.02700000E-01  2.52600000E-02
  1.40700000E+00  3.88000000E-01  1.02000000E-01  1.05700000E+00  2.47000000E-01
Contraction coefficients                   R   N=          60
  5.34563860E-04  4.13435660E-03  2.12335358E-02  8.25006224E-02  2.38138871E-01
  4.42551547E-01  3.53757422E-01 -4.89867350E-05 -1.19527323E-03 -1.03490714E-02
 -6.48680190E-02 -1.71552477E-01  1.07289568E+00  1.00000000E+00  1.00000000E+00
  1.00000000E+00  3.98072123E-02  2.49002660E-01  8.10479727E-01  1.00000000E+00
  1.00000000E+00  1.00000000E+00  1.00000000E+00  1.00000000E+00  1.00000000E+00
  1.00000000E+00  1.00000000E+00  2.54948632E-02  1.90362766E-01  8.52162022E-01
  1.00000000E+00  1.00000000E+00  1.00000000E+00  1.00000000E+00  1.00000000E+00
  1.00000000E+00  1.00000000E+00  1.00000000E+00  2.54948632E-02  1.90362766E-01
  8.52162022E-01  1.00000000E+00  1.00000000E+00  1.00000000E+00  1.00000000E+00
  1.00000000E+00  1.00000000E+00  1.00000000E+00  1.00000000E+00  2.54948632E-02
  1.90362766E-01  8.52162022E-01  1.00000000E+00  1.00000000E+00  1.00000000E+00
  1.00000000E+00  1.00000000E+00  1.00000000E+00  1.00000000E+00  1.00000000E+00
Coordinates of each shell                  R   N=         123
  7.91002806E-18  1.53532970E-17  2.15451050E-01  7.91002806E-18  1.53532970E-17
  2.15451050E-01  7.91002806E-18  1.53532970E-17  2.15451050E-01  7.91002806E-18
  1.53532970E-17  2.15451050E-01  7.91002806E-18  1.53532970E-17  2.15451050E-01
  7.91002806E-18  1.53532970E-17  2.15451050E-01  7.91002806E-18  1.53532970E-17
  2.15451050E-01  7.91002806E-18  1.53532970E-17  2.15451050E-01  7.91002806E-18
  1.53532970E-17  2.15451050E-01  7.91002806E-18  1.53532970E-17  2.15451050E-01
  7.91002806E-18  1.53532970E-17  2.15451050E-01  7.91002806E-18  1.53532970E-17
  2.15451050E-01  7.91002806E-18  1.53532970E-17  2.15451050E-01  7.91002806E-18
  1.53532970E-17  2.15451050E-01  3.83770712E-17  1.77268272E+00 -5.02719117E-01
  3.83770712E-17  1.77268272E+00 -5.02719117E-01  3.83770712E-17  1.77268272E+00
 -5.02719117E-01  3.83770712E-17  1.77268272E+00 -5.02719117E-01  3.83770712E-17
  1.77268272E+00 -5.02719117E-01  3.83770712E-17  1.77268272E+00 -5.02719117E-01
  3.83770712E-17  1.77268272E+00 -5.02719117E-01  3.83770712E-17  1.77268272E+00
 -5.02719117E-01  3.83770712E-17  1.77268272E+00 -5.02719117E-01 -1.53518826E+00
 -8.86341358E-01 -5.02719117E-01 -1.53518826E+00 -8.86341358E-01 -5.02719117E-01
 -1.53518826E+00 -8.86341358E-01 -5.02719117E-01 -1.53518826E+00 -8.86341358E-01
 -5.02719117E-01 -1.53518826E+00 -8.86341358E-01 -5.02719117E-01 -1.53518826E+00
 -8.86341358E-01 -5.02719117E-01 -1.53518826E+00 -8.86341358E-01 -5.02719117E-01
 -1.53518826E+00 -8.86341358E-01 -5.02719117E-01 -1.53518826E+00 -8.86341358E-01
 -5.02719117E-01  1.53518826E+00 -8.86341358E-01 -5.02719117E-01  1.53518826E+00
 -8.86341358E-01 -5.02719117E-01  1.53518826E+00 -8.86341358E-01 -5.02719117E-01
  1.53518826E+00 -8.86341358E-01 -5.02719117E-01  1.53518826E+00 -8.86341358E-01
 -5.02719117E-01  1.53518826E+00 -8.86341358E-01 -5.02719117E-01  1.53518826E+00
 -8.86341358E-01 -5.02719117E-01  1.53518826E+00 -8.86341358E-01 -5.02719117E-01
  1.53518826E+00 -8.86341358E-01 -5.02719117E-01
Num ILSW                                   I              100
ILSW                                       I   N=         100
           0           0           0           1           2           0
           0           0           0           0           0          -1
           5           0           0           0           2           0
           0           0           0           0           1           0
           1           0           0           0           0           0
           0           0      100000           0          -1           0
           0           0           0           0           0           0
           0           0           0           1           1           0
           0 -2000000000           1           0           0           0
           0           0           4          52           0           0
           0           0           0           0           0           0
           0           0           0           4           4           1
           0           0           0           0           0           0
           0           0           0           0           0           0
           0           0           0           0           0           0
           0           0           0           0           0           0
           0           0           0           0
Num RLSW                                   I               52
RLSW                                       R   N=          52
  1.00000000E+00  1.00000000E+00  1.00000000E+00  1.00000000E+00  1.00000000E+00
  0.00000000E+00  0.00000000E+00  1.00000000E+00  0.00000000E+00  0.00000000E+00
  0.00000000E+00  0.00000000E+00  1.00000000E+00  0.00000000E+00  0.00000000E+00
  0.00000000E+00  0.00000000E+00  1.00000000E+00  0.00000000E+00  0.00000000E+00
  0.00000000E+00  0.00000000E+00  1.00000000E+00  0.00000000E+00  0.00000000E+00
  0.00000000E+00  0.00000000E+00  1.00000000E+00  0.00000000E+00  0.00000000E+00
  0.00000000E+00  0.00000000E+00  1.00000000E+00  0.00000000E+00  0.00000000E+00
  0.00000000E+00  0.00000000E+00  0.00000000E+00  1.00000000E+00  1.00000000E+00
  0.00000000E+00  1.00000000E+00  0.00000000E+00  0.00000000E+00  0.00000000E+00
  0.00000000E+00  0.00000000E+00  0.00000000E+00  0.00000000E+00  0.00000000E+00
  0.00000000E+00  0.00000000E+00
MxBond                                     I                3
NBond                                      I   N=           4
           3           1           1           1
IBond                                      I   N=          12
           2           3           4           1           0           0
           1           0           0           1           0           0
RBond                                      R   N=          12
  1.00000000E+00  1.00000000E+00  1.00000000E+00  1.00000000E+00  0.00000000E+00
  0.00000000E+00  1.00000000E+00  0.00000000E+00  0.00000000E+00  1.00000000E+00
  0.00000000E+00  0.00000000E+00
Virial Ratio                               R      2.001628209804693E+00
SCF Energy                                 R     -5.622032412392450E+01
MP2 Energy                                 R     -5.646054087460102E+01
Total Energy                               R     -5.646054087460102E+01
Post-SCF wavefunction norm                 R      1.460742262343215E+00
RMS Force                                  R      4.690338511464636E-07
RMS Density                                R      5.318054637766046E-10
NImag                                      I                0
Job Status                                 I                1
Nuclear derivative order                   I                3
External E-field                           R   N=          35
  0.00000000E+00  0.00000000E+00  0.00000000E+00  0.00000000E+00  0.00000000E+00
  0.00000000E+00  0.00000000E+00  0.00000000E+00  0.00000000E+00  0.00000000E+00
  0.00000000E+00  0.00000000E+00  0.00000000E+00  0.00000000E+00  0.00000000E+00
  0.00000000E+00  0.00000000E+00  0.00000000E+00  0.00000000E+00  0.00000000E+00
  0.00000000E+00  0.00000000E+00  0.00000000E+00  0.00000000E+00  0.00000000E+00
  0.00000000E+00  0.00000000E+00  0.00000000E+00  0.00000000E+00  0.00000000E+00
  0.00000000E+00  0.00000000E+00  0.00000000E+00  0.00000000E+00  0.00000000E+00
IOpCl                                      I                0
IROHF                                      I                0
Alpha Orbital Energies                     R   N=         115
 -1.55417196E+01 -1.14248607E+00 -6.30670480E-01 -6.26991865E-01 -4.29337680E-01
  2.95424445E-02  4.86748579E-02  4.86865659E-02  1.17872882E-01  1.52434399E-01
  1.62316763E-01  1.62349561E-01  2.21081631E-01  2.21850492E-01  2.35319467E-01
  2.35431919E-01  2.54592006E-01  3.55972675E-01  3.58004296E-01  3.70586410E-01
  3.70748992E-01  4.28147368E-01  4.60196293E-01  4.61516638E-01  4.86619939E-01
  4.87227588E-01  5.63603154E-01  6.02085819E-01  6.02253570E-01  7.49155864E-01
  7.85093301E-01  7.87347621E-01  8.11074740E-01  8.83304204E-01  9.02382327E-01
  9.14504619E-01  9.14628020E-01  9.79664034E-01  9.81880514E-01  1.03349204E+00
  1.03552419E+00  1.03713205E+00  1.08125895E+00  1.10366200E+00  1.10405183E+00
  1.14174971E+00  1.14240050E+00  1.18561479E+00  1.21900112E+00  1.21952235E+00
  1.32189147E+00  1.36264169E+00  1.36356273E+00  1.61655701E+00  1.75663818E+00
  1.75945919E+00  1.76410457E+00  1.86276245E+00  1.86454765E+00  1.86624530E+00
  2.00329323E+00  2.03697679E+00  2.04421692E+00  2.04919405E+00  2.04981620E+00
  2.27089631E+00  2.34411897E+00  2.37067528E+00  2.37724585E+00  2.43611501E+00
  2.43710632E+00  2.47436464E+00  3.38871629E+00  3.55854040E+00  3.56398767E+00
  3.96780763E+00  3.97131240E+00  4.04305308E+00  4.14056757E+00  4.14079401E+00
  4.21386450E+00  4.21995727E+00  4.25915055E+00  4.26123901E+00  4.32342672E+00
  4.35795418E+00  4.36140970E+00  4.47186399E+00  4.54444553E+00  4.55391868E+00
  4.69015521E+00  4.74620895E+00  4.74686923E+00  4.93523424E+00  4.94349439E+00
  4.98298436E+00  5.06022090E+00  5.06346270E+00  5.06694614E+00  5.25222067E+00
  5.66914312E+00  5.67202665E+00  5.73233872E+00  5.89011793E+00  5.90753090E+00
  6.05994184E+00  6.31575107E+00  6.33381184E+00  6.42750604E+00  6.63041639E+00
  6.93138103E+00  6.94719216E+00  7.67624408E+00  7.69739862E+00  1.72476161E+01
Alpha MO coefficients                      R   N=       13225
  9.77741680E-01 -7.72258208E-03  4.24884404E-02  1.03464765E-03  3.98717071E-04
 -3.70172273E-16 -1.14790251E-15 -1.93551101E-03  3.28078755E-15  1.81355726E-14
  9.81561538E-04 -5.93522769E-15  4.46529836E-14  7.64113521E-04 -2.48907974E-15
 -5.50800369E-15  1.11215669E-05 -2.05628178E-04 -1.18910601E-16 -1.25165529E-16
  4.09699385E-16 -1.88998107E-16  2.82157561E-04 -7.27098727E-16 -7.80310996E-15
 -2.11019297E-14 -1.73686079E-15  4.18815830E-05  4.14637780E-16 -3.32236154E-15
 -2.27149748E-14 -8.40926823E-16  2.48077103E-04  2.05980537E-18 -4.32172441E-16
  1.67890235E-15  5.80164965E-16 -3.09007914E-17 -4.34880720E-04 -3.88987732E-04
  2.59810813E-16 -1.80586750E-15  7.03857082E-15  4.46497925E-16 -2.51279497E-15
  5.74704085E-04  3.53979277E-04  1.12885372E-03 -4.51726719E-04 -1.67101925E-05
  2.14650410E-16  2.09000738E-04 -8.90640353E-05 -1.71542251E-15 -2.73636745E-04
  3.82838617E-06 -3.38479453E-16  1.15540590E-04 -1.86381821E-04  8.15292242E-05
 -3.09622060E-16  2.96541150E-04  2.96018748E-04 -4.00610869E-17 -5.51208276E-05
 -3.08549935E-16 -6.38902963E-06 -1.13360189E-04  4.25759195E-16  3.53979277E-04
  1.12885372E-03 -4.51726719E-04 -1.67101925E-05 -1.80999949E-04 -1.04500369E-04
 -8.90640353E-05  2.36976372E-04  1.36818372E-04  3.82838619E-06 -1.00061086E-04
 -5.77702949E-05 -1.86381821E-04  8.15292242E-05 -2.56812169E-04 -1.48270575E-04
 -1.48009374E-04 -2.56359755E-04 -5.51208276E-05  5.53306196E-06  3.19451481E-06
  5.66800946E-05  9.81728037E-05  3.53979277E-04  1.12885372E-03 -4.51726719E-04
 -1.67101925E-05  1.80999949E-04 -1.04500369E-04 -8.90640353E-05 -2.36976372E-04
  1.36818372E-04  3.82838619E-06  1.00061086E-04 -5.77702948E-05 -1.86381821E-04
  8.15292242E-05  2.56812169E-04 -1.48270575E-04 -1.48009374E-04  2.56359755E-04
 -5.51208276E-05 -5.53306196E-06  3.19451482E-06  5.66800946E-05 -9.81728037E-05
 -1.87579302E-01  4.56700583E-01  1.12713323E-01  2.82258704E-01  2.82778029E-02
 -1.01207993E-15  1.82619208E-14 -4.10851235E-02  2.10919517E-14 -3.24078022E-13
 -6.20450460E-02 -5.36713531E-15 -1.80502840E-12 -1.36479368E-02 -1.66091417E-14
 -4.39904247E-13 -3.22548310E-06 -3.27720890E-03 -4.60316132E-16 -1.09706953E-15
  2.06682649E-15 -2.59520396E-16 -7.44714226E-03 -7.98610770E-15  1.65050795E-13
  2.00530199E-13 -1.25981159E-14  1.50717418E-03  4.38671349E-15  1.13005527E-13
  3.86508693E-13 -3.52646029E-15  2.87677403E-03  1.33335136E-16 -8.02786100E-16
 -9.19308460E-15  3.28336067E-16  2.30581631E-16 -3.28295825E-03  1.78801823E-03
  2.55930514E-15  4.67743766E-14 -4.88371508E-14  4.04461928E-15 -1.19337387E-14
 -1.67692824E-03  8.71211600E-02  7.95653175E-02 -1.08297838E-02 -1.76214424E-03
 -2.23352044E-16 -1.02336523E-02  3.46647790E-03 -3.63658154E-15 -4.37303294E-03
 -1.09449769E-03  3.22371235E-15  7.88829682E-03 -4.74430943E-03 -6.38104560E-04
 -3.49979976E-16 -1.00051726E-03 -1.51584030E-03  5.19533545E-18  1.04804507E-03
 -2.09890118E-15  2.86101039E-03  2.45046123E-03  2.16145213E-15  8.71211600E-02
  7.95653175E-02 -1.08297838E-02 -1.76214425E-03  8.86260287E-03  5.11682615E-03
  3.46647790E-03  3.78715761E-03  2.18651647E-03 -1.09449769E-03 -6.83146544E-03
 -3.94414841E-03 -4.74430943E-03 -6.38104560E-04  8.66473366E-04  5.00258631E-04
  7.57920151E-04  1.31275621E-03  1.04804507E-03 -2.47770768E-03 -1.43050519E-03
 -1.22523062E-03 -2.12216168E-03  8.71211600E-02  7.95653175E-02 -1.08297838E-02
 -1.76214425E-03 -8.86260287E-03  5.11682615E-03  3.46647790E-03 -3.78715761E-03
  2.18651647E-03 -1.09449769E-03  6.83146544E-03 -3.94414841E-03 -4.74430943E-03
 -6.38104560E-04 -8.66473366E-04  5.00258631E-04  7.57920151E-04 -1.31275621E-03
  1.04804507E-03  2.47770768E-03 -1.43050519E-03 -1.22523062E-03  2.12216168E-03
 -1.79284163E-17  1.56929290E-15 -2.67342489E-15  3.58932053E-13  1.49520596E-13
  2.52986075E-01  2.42174116E-02  2.57058699E-15  3.05423277E-01  2.92370291E-02
 -2.07337231E-14  1.64800772E-01  1.57757621E-02 -9.32993234E-14  7.37882383E-03
  7.06347233E-04 -1.55082523E-14  4.93790896E-16 -1.13045774E-02 -1.08214495E-03
 -8.64946501E-04 -9.03562377E-03 -1.22146296E-14 -2.14441750E-02 -2.05277075E-03
 -1.18330974E-03 -1.23613907E-02 -9.22337590E-15 -6.10091069E-03 -5.84017384E-04
 -4.15048134E-04 -4.33578121E-03  6.10550270E-16 -1.63143899E-03 -1.56171558E-04
 -3.56975275E-05 -3.72912576E-04  2.56641281E-17 -1.01810853E-15  7.20878101E-15
  6.14852256E-04  5.88575090E-05  3.59309041E-04  3.75350535E-03 -1.06674476E-14
 -1.00486328E-14  1.57148552E-02  2.39801973E-02  4.72361610E-03 -3.95880033E-04
  5.82850608E-03 -1.43899359E-03  7.71527044E-04  1.60420274E-02 -1.90995577E-03
  1.50686555E-03  6.61515101E-03  1.22216414E-03 -1.38140147E-04 -1.73042434E-04
  7.89166689E-04 -4.73179922E-04 -4.68467961E-04 -2.15890122E-03  1.62803644E-04
 -2.83152941E-04 -1.61390274E-04  2.13446002E-04 -2.84665502E-03 -1.50028064E-01
 -2.28936414E-01 -4.50958645E-02  3.77942491E-03 -1.06818567E-02 -8.97432129E-03
 -7.36568728E-03 -1.24456801E-02 -1.49117422E-02 -1.43858864E-02  1.14842588E-02
  3.44442440E-03  1.31880941E-03  1.65201786E-03 -3.74760194E-03 -2.54376061E-03
 -1.45637310E-03 -4.32346167E-03 -1.55426921E-03 -1.39340243E-03 -6.68108016E-04
  2.04713627E-03  1.17107225E-03  1.34313209E-01  2.04956216E-01  4.03722484E-02
 -3.38354487E-03 -8.95246054E-03  9.09173616E-03  6.59416023E-03 -9.46170370E-03
  1.62602293E-02  1.28790209E-02  1.09742388E-02 -1.88347680E-03 -1.18066926E-03
 -1.47897542E-03 -3.27239310E-03  2.42048662E-03  9.12143804E-04 -4.09673240E-03
  1.39146557E-03 -1.27710812E-03  5.46755120E-04 -2.34916274E-03  7.50230975E-04
 -2.32844677E-15 -1.64752897E-14 -3.84068203E-14  3.17576295E-12  1.26548940E-12
 -2.42174116E-02  2.52986075E-01  1.69172815E-14 -2.92370291E-02  3.05423277E-01
 -1.76184790E-13 -1.57757621E-02  1.64800772E-01 -7.76930079E-13 -7.06347233E-04
  7.37882383E-03 -1.11583302E-13  8.15528995E-15  1.08214495E-03 -1.13045774E-02
 -9.03562377E-03  8.64946501E-04 -1.54106929E-13  2.05277075E-03 -2.14441750E-02
 -1.23613907E-02  1.18330974E-03 -1.19109352E-13  5.84017384E-04 -6.10091069E-03
 -4.33578121E-03  4.15048134E-04  4.61531637E-15  1.56171558E-04 -1.63143899E-03
 -3.72912576E-04  3.56975275E-05 -2.42479189E-16 -1.01225504E-14  7.66005486E-14
 -5.88575090E-05  6.14852256E-04  3.75350535E-03 -3.59309041E-04 -4.62073778E-15
 -1.14691388E-13  1.64164511E-01  2.50508027E-01  4.93450380E-02 -4.13554253E-03
 -5.57941108E-04 -1.50323802E-02  8.05972172E-03 -1.53564334E-03 -1.99522649E-02
  1.57414016E-02 -6.33243688E-04  1.27672814E-02 -1.44307468E-03 -1.80767981E-03
 -7.55439783E-05 -4.94305225E-03 -4.89382897E-03  2.06663547E-04  1.70072076E-03
  2.71051730E-05 -1.68595606E-03  2.22975382E-03  2.72499648E-04 -6.84727915E-02
 -1.04486553E-01 -2.05817475E-02  1.72492910E-03 -8.09326882E-03  1.47798260E-03
 -3.36169884E-03 -1.45374298E-02  8.53544245E-03 -6.56571694E-03  1.58901657E-03
  7.89817357E-03  6.01904464E-04  7.53980763E-04 -2.14612467E-03 -4.06283628E-04
 -2.72926852E-03 -7.81241597E-04 -7.09368291E-04 -4.79612570E-04 -5.75706566E-04
 -1.78797345E-03  2.10618992E-03 -9.56917192E-02 -1.46021473E-01 -2.87632905E-02
  2.41061343E-03  9.97278864E-03 -2.51413577E-04 -4.69802288E-03  1.66345418E-02
  5.55146610E-03 -9.17568463E-03 -3.73888463E-03  8.40819365E-03  8.41170217E-04
  1.05369905E-03  2.81812256E-03 -8.81492465E-04 -2.95599780E-03  1.58727531E-03
 -9.91352474E-04  7.35250567E-04 -6.92000875E-04 -1.36713217E-03 -2.29010910E-03
 -5.76703040E-02  1.56906684E-01  4.28432457E-02  2.89193850E-01  8.24257629E-02
 -5.01920223E-16  1.42588267E-14  2.99127641E-01  8.05052225E-15 -2.67979323E-13
  3.83681148E-01  4.07534574E-14 -1.96168931E-12  2.71772435E-01 -3.54265279E-14
 -5.41985649E-13  3.44820775E-02 -4.61084097E-03  7.34280584E-16 -3.26388491E-15
  8.80013476E-16  5.54176922E-16 -1.49455613E-02 -1.40723990E-14  1.59657223E-13
  1.70903057E-13 -8.92423021E-15 -1.12815554E-02 -2.49918390E-14  1.30709720E-13
  3.98682655E-13 -1.23829609E-14 -2.95336520E-03  3.48987100E-16 -8.88147258E-16
 -7.89680243E-15  4.43789022E-16 -2.95020370E-17 -3.32498916E-04  7.55865088E-04
  5.83506158E-15  4.42992591E-14 -4.32584727E-14  7.19283306E-15 -2.73871649E-15
 -2.23374647E-03 -4.12636104E-02 -9.49645375E-02 -5.20410513E-02 -3.12719911E-03
  3.64078668E-16  5.44042112E-03  6.61100641E-03 -2.36422506E-15  1.66045914E-02
  1.98497911E-02  9.05015438E-15  1.34457893E-03  1.77055207E-02  2.62135869E-03
  3.07105081E-16 -1.81617721E-03  2.13789723E-03  1.05765476E-16  2.45477261E-03
  1.17789733E-15 -5.41965786E-03 -1.64529942E-03 -6.95998353E-16 -4.12636104E-02
 -9.49645375E-02 -5.20410513E-02 -3.12719911E-03 -4.71154290E-03 -2.72021056E-03
  6.61100641E-03 -1.43799979E-02 -8.30229568E-03  1.98497911E-02 -1.16443951E-03
 -6.72289467E-04  1.77055207E-02  2.62135869E-03  1.57285560E-03  9.08088603E-04
 -1.06894861E-03 -1.85147331E-03  2.45477261E-03  4.69356138E-03  2.70982893E-03
  8.22649712E-04  1.42487110E-03 -4.12636104E-02 -9.49645375E-02 -5.20410513E-02
 -3.12719911E-03  4.71154290E-03 -2.72021056E-03  6.61100641E-03  1.43799979E-02
 -8.30229568E-03  1.98497911E-02  1.16443951E-03 -6.72289467E-04  1.77055207E-02
  2.62135869E-03 -1.57285560E-03  9.08088603E-04 -1.06894861E-03  1.85147331E-03
  2.45477261E-03 -4.69356138E-03  2.70982893E-03  8.22649712E-04 -1.42487110E-03
 -2.44009645E-02  6.79669870E-02  9.96428911E-03  1.53211080E+00  2.93330095E+00
 -4.63757088E-15  3.52661411E-14 -1.77371256E-02 -1.63089137E-14 -2.70419388E-12
 -7.27250590E-02 -3.29595947E-14 -2.39044951E-11 -3.06316602E-01 -2.59454329E-14
 -1.65247610E-11 -1.37900693E-01  1.25055656E-03  9.58458347E-16 -2.43626216E-14
 -1.26250943E-14  3.17266549E-15 -3.40730738E-02 -1.37757837E-15  1.63197563E-12
  1.99032754E-12 -2.56821789E-14 -9.98269037E-02 -5.10342451E-14  2.79486948E-12
  5.22465139E-12 -5.71078149E-14  8.24953630E-04  7.97926924E-16  4.83501756E-15
 -9.20696240E-14 -9.06679262E-16  2.51757868E-16 -2.18582348E-03  2.14055459E-02
  1.59109484E-15  3.77838728E-13 -5.90896538E-13  1.27365828E-14 -4.41526561E-15
 -2.62470205E-02  1.50449884E-03 -2.31416986E-01 -8.69470216E-01 -7.55637459E-01
  1.64576793E-15 -2.85264554E-03  4.15319545E-04  6.57760449E-15  8.07390565E-02
 -3.84023002E-02 -6.38814440E-14  1.91916522E-01 -1.31703998E-01  5.12179280E-04
 -1.07830456E-15  2.90133197E-03  2.23112856E-03 -2.29404976E-15  5.93561768E-03
  2.03069644E-14  1.72438924E-02  9.44209081E-03  6.13301646E-16  1.50449884E-03
 -2.31416986E-01 -8.69470216E-01 -7.55637459E-01  2.47046350E-03  1.42632277E-03
  4.15319545E-04 -6.99220740E-02 -4.03695283E-02 -3.84023002E-02 -1.66204583E-01
 -9.59582609E-02 -1.31703998E-01  5.12179280E-04 -2.51262719E-03 -1.45066598E-03
 -1.11556428E-03 -1.93221402E-03  5.93561768E-03 -1.49336489E-02 -8.62194622E-03
 -4.72104541E-03 -8.17709051E-03  1.50449884E-03 -2.31416986E-01 -8.69470216E-01
 -7.55637459E-01 -2.47046350E-03  1.42632277E-03  4.15319545E-04  6.99220740E-02
 -4.03695283E-02 -3.84023002E-02  1.66204583E-01 -9.59582609E-02 -1.31703998E-01
  5.12179280E-04  2.51262719E-03 -1.45066598E-03 -1.11556428E-03  1.93221402E-03
  5.93561768E-03  1.49336489E-02 -8.62194622E-03 -4.72104541E-03  8.17709051E-03
 -1.62669322E-14  2.05928878E-16  3.03023375E-14 -3.36704562E-12 -2.59664485E-12
  2.58546816E-02  1.25372625E-03 -1.63360041E-14  9.24220029E-02  4.48165996E-03
  1.38602435E-13  7.26331492E-01  3.52207338E-02  1.14423579E-12  1.40062906E+00
  6.79182768E-02  5.22360461E-13 -5.06576467E-15 -5.28143471E-04 -2.56103457E-05
 -4.25682885E-05 -8.77854751E-04  9.28061572E-14 -3.60319907E-02 -1.74723686E-03
 -1.59434076E-03 -3.28789260E-02 -1.11541445E-14 -1.18897147E-01 -5.76547323E-03
 -3.20522032E-03 -6.60989198E-02 -1.84388820E-15 -1.26836602E-04 -6.15046746E-06
  1.11064861E-04  2.29040959E-03  1.17880693E-15  4.52253955E-15 -7.20965391E-14
 -6.26825985E-03 -3.03955858E-04  3.43220557E-04  7.07798710E-03 -4.77081921E-14
  8.45859292E-14  5.91436073E-04 -1.20927079E-02 -7.34517460E-02 -2.12033338E-01