h3o2m                                                                   
Freq      RB3LYP                                                      6-311+G(d,p)        
Number of atoms                            I               12
Info1-9                                    I   N=           9
          35          30        1002           0           0         100
           6          18        -502
Full Title                                 C   N=           1
h3o2m       
Route                                      C   N=           4
#p opt=verytight freq=anh b3lyp/6-311+g(d,p)    
Charge                                     I                0
Multiplicity                               I                1
Number of electrons                        I               42
Number of alpha electrons                  I               21
Number of beta electrons                   I               21
Number of basis functions                  I              168
Number of independent functions            I              168
Number of point charges in /Mol/           I                0
Number of translation vectors              I                0
Atomic numbers                             I   N=          12
           6           6           6           1           6           1
           6           1           6           1           1           1
Nuclear charges                            R   N=          12
  6.00000000E+00  6.00000000E+00  6.00000000E+00  1.00000000E+00  6.00000000E+00
  1.00000000E+00  6.00000000E+00  1.00000000E+00  6.00000000E+00  1.00000000E+00
  1.00000000E+00  1.00000000E+00
Current cartesian coordinates              R   N=          36
 -1.30643658E-16  2.63551780E+00 -8.31521215E-31  2.28242537E+00  1.31775890E+00
 -3.64294492E-31  2.28242537E+00 -1.31775890E+00 -7.20239417E-31  4.05711136E+00
  2.34237433E+00 -7.72788096E-31 -4.46245148E-16 -2.63551780E+00  6.31801119E-31
  4.05711136E+00 -2.34237433E+00 -2.86858123E-16 -2.28242537E+00 -1.31775890E+00
 -1.60451795E-30 -3.27551698E-15 -4.68474867E+00  8.21632847E-31 -2.28242537E+00
  1.31775890E+00 -8.55812480E-31 -4.05711136E+00 -2.34237433E+00 -1.20103408E-30
 -4.05711136E+00  2.34237433E+00 -4.96852844E-16  1.73714683E-15  4.68474867E+00
 -2.40603431E-30
Number of symbols in /Mol/                 I                0
Force Field                                I                0
Atom Types                                 C   N=          12
                                                            
                                                            
                        
Int Atom Types                             I   N=          12
           0           0           0           0           0           0
           0           0           0           0           0           0
MM charges                                 R   N=          12
  0.00000000E+00  0.00000000E+00  0.00000000E+00  0.00000000E+00  0.00000000E+00
  0.00000000E+00  0.00000000E+00  0.00000000E+00  0.00000000E+00  0.00000000E+00
  0.00000000E+00  0.00000000E+00
Integer atomic weights                     I   N=          12
          12          12          12           1          12           1
          12           1          12           1           1           1
Real atomic weights                        R   N=          12
  1.20000000E+01  1.20000000E+01  1.20000000E+01  1.00782504E+00  1.20000000E+01
  1.00782504E+00  1.20000000E+01  1.00782504E+00  1.20000000E+01  1.00782504E+00
  1.00782504E+00  1.00782504E+00
Atom fragment info                         I   N=          12
           0           0           0           0           0           0
           0           0           0           0           0           0
Atom residue num                           I   N=          12
           0           0           0           0           0           0
           0           0           0           0           0           0
Nuclear spins                              I   N=          12
           0           0           0           1           0           1
           0           1           0           1           1           1
Nuclear ZEff                               R   N=          12
 -3.60000000E+00 -3.60000000E+00 -3.60000000E+00 -1.00000000E+00 -3.60000000E+00
 -1.00000000E+00 -3.60000000E+00 -1.00000000E+00 -3.60000000E+00 -1.00000000E+00
 -1.00000000E+00 -1.00000000E+00
Nuclear ZNuc                               R   N=          12
  6.00000000E+00  6.00000000E+00  6.00000000E+00  1.00000000E+00  6.00000000E+00
  1.00000000E+00  6.00000000E+00  1.00000000E+00  6.00000000E+00  1.00000000E+00
  1.00000000E+00  1.00000000E+00
Nuclear QMom                               R   N=          12
  0.00000000E+00  0.00000000E+00  0.00000000E+00  0.00000000E+00  0.00000000E+00
  0.00000000E+00  0.00000000E+00  0.00000000E+00  0.00000000E+00  0.00000000E+00
  0.00000000E+00  0.00000000E+00
Nuclear GFac                               R   N=          12
  0.00000000E+00  0.00000000E+00  0.00000000E+00  2.79284600E+00  0.00000000E+00
  2.79284600E+00  0.00000000E+00  2.79284600E+00  0.00000000E+00  2.79284600E+00
  2.79284600E+00  2.79284600E+00
MicOpt                                     I   N=          12
          -1          -1          -1          -1          -1          -1
          -1          -1          -1          -1          -1          -1
Number of residues                         I                0
Number of secondary structures             I                0
Redundant internal dimensions              I   N=           4
          54          12          18          24
Redundant internal coordinate indices      I   N=         216
           1           2           0           0           1           9
           0           0           1          12           0           0
           2           3           0           0           2           4
           0           0           3           5           0           0
           3           6           0           0           5           7
           0           0           5           8           0           0
           7           9           0           0           7          10
           0           0           9          11           0           0
           2           1           9           0           2           1
          12           0           9           1          12           0
           1           2           3           0           1           2
           4           0           3           2           4           0
           2           3           5           0           2           3
           6           0           5           3           6           0
           3           5           7           0           3           5
           8           0           7           5           8           0
           5           7           9           0           5           7
          10           0           9           7          10           0
           1           9           7           0           1           9
          11           0           7           9          11           0
           9           1           2           3           9           1
           2           4          12           1           2           3
          12           1           2           4           2           1
           9           7           2           1           9          11
          12           1           9           7          12           1
           9          11           1           2           3           5
           1           2           3           6           4           2
           3           5           4           2           3           6
           2           3           5           7           2           3
           5           8           6           3           5           7
           6           3           5           8           3           5
           7           9           3           5           7          10
           8           5           7           9           8           5
           7          10           5           7           9           1
           5           7           9          11          10           7
           9           1          10           7           9          11
Redundant internal coordinates             R   N=          54
  2.63551780E+00  2.63551780E+00  2.04923087E+00  2.63551780E+00  2.04923087E+00
  2.63551780E+00  2.04923087E+00  2.63551780E+00  2.04923087E+00  2.63551780E+00
  2.04923087E+00  2.04923087E+00  2.09439510E+00  2.09439510E+00  2.09439510E+00
  2.09439510E+00  2.09439510E+00  2.09439510E+00  2.09439510E+00  2.09439510E+00
  2.09439510E+00  2.09439510E+00  2.09439510E+00  2.09439510E+00  2.09439510E+00
  2.09439510E+00  2.09439510E+00  2.09439510E+00  2.09439510E+00  2.09439510E+00
  0.00000000E+00  3.14159265E+00  3.14159265E+00  0.00000000E+00 -0.00000000E+00
  3.14159265E+00  3.14159265E+00  0.00000000E+00 -0.00000000E+00  3.14159265E+00
  3.14159265E+00 -0.00000000E+00  0.00000000E+00  3.14159265E+00  3.14159265E+00
  0.00000000E+00 -0.00000000E+00  3.14159265E+00  3.14159265E+00 -0.00000000E+00
  0.00000000E+00  3.14159265E+00  3.14159265E+00 -0.00000000E+00
ZRed-IntVec                                I   N=          54
           0           0           0           0           0           0
           0           0           0           0           0           0
           0           0           0           0           0           0
           0           0           0           0           0           0
           0           0           0           0           0           0
           0           0           0           0           0           0
           0           0           0           0           0           0
           0           0           0           0           0           0
           0           0           0           0           0           0
ZRed-FPVec                                 R   N=          54
  0.00000000E+00  0.00000000E+00  0.00000000E+00  0.00000000E+00  0.00000000E+00
  0.00000000E+00  0.00000000E+00  0.00000000E+00  0.00000000E+00  0.00000000E+00
  0.00000000E+00  0.00000000E+00  0.00000000E+00  0.00000000E+00  0.00000000E+00
  0.00000000E+00  0.00000000E+00  0.00000000E+00  0.00000000E+00  0.00000000E+00
  0.00000000E+00  0.00000000E+00  0.00000000E+00  0.00000000E+00  0.00000000E+00
  0.00000000E+00  0.00000000E+00  0.00000000E+00  0.00000000E+00  0.00000000E+00
  0.00000000E+00  0.00000000E+00  0.00000000E+00  0.00000000E+00  0.00000000E+00
  0.00000000E+00  0.00000000E+00  0.00000000E+00  0.00000000E+00  0.00000000E+00
  0.00000000E+00  0.00000000E+00  0.00000000E+00  0.00000000E+00  0.00000000E+00
  0.00000000E+00  0.00000000E+00  0.00000000E+00  0.00000000E+00  0.00000000E+00
  0.00000000E+00  0.00000000E+00  0.00000000E+00  0.00000000E+00
ZRed-Constraint1                           R   N=          54
  2.63551780E+00  2.63551780E+00  2.04923087E+00  2.63551780E+00  2.04923087E+00
  2.63551780E+00  2.04923087E+00  2.63551780E+00  2.04923087E+00  2.63551780E+00
  2.04923087E+00  2.04923087E+00  2.09439510E+00  2.09439510E+00  2.09439510E+00
  2.09439510E+00  2.09439510E+00  2.09439510E+00  2.09439510E+00  2.09439510E+00
  2.09439510E+00  2.09439510E+00  2.09439510E+00  2.09439510E+00  2.09439510E+00
  2.09439510E+00  2.09439510E+00  2.09439510E+00  2.09439510E+00  2.09439510E+00
  0.00000000E+00  3.14159265E+00  3.14159265E+00 -0.00000000E+00  0.00000000E+00
  3.14159265E+00  3.14159265E+00  0.00000000E+00 -0.00000000E+00  3.14159265E+00
  3.14159265E+00 -0.00000000E+00 -0.00000000E+00  3.14159265E+00  3.14159265E+00
  0.00000000E+00  0.00000000E+00  3.14159265E+00  3.14159265E+00  0.00000000E+00
 -0.00000000E+00  3.14159265E+00  3.14159265E+00 -0.00000000E+00
ZRed-Constraint2                           R   N=          54
  2.07869874E+00  2.07869874E+00  1.81413708E+00  2.07869874E+00  1.81413708E+00
  2.07869874E+00  1.81413708E+00  2.07869874E+00  1.81413708E+00  2.07869874E+00
  1.81413708E+00  1.81413708E+00  2.09439510E+00  2.09439510E+00  2.09439510E+00
  2.09439510E+00  2.09439510E+00  2.09439510E+00  2.09439510E+00  2.09439510E+00
  2.09439510E+00  2.09439510E+00  2.09439510E+00  2.09439510E+00  2.09439510E+00
  2.09439510E+00  2.09439510E+00  2.09439510E+00  2.09439510E+00  2.09439510E+00
  0.00000000E+00  3.14159265E+00  3.14159265E+00  0.00000000E+00  0.00000000E+00
  3.14159265E+00  3.14159265E+00  0.00000000E+00  0.00000000E+00  3.14159265E+00
  3.14159265E+00  0.00000000E+00  0.00000000E+00  3.14159265E+00  3.14159265E+00
  0.00000000E+00  0.00000000E+00  3.14159265E+00  3.14159265E+00  0.00000000E+00
  0.00000000E+00  3.14159265E+00  3.14159265E+00  0.00000000E+00
SymInf integers                            I   N=          26
           4           8           1           1           1          -1
          -1           1          -1           1          -1           1
          -1          -1          -1           1           1           1
          -1           1           1           1          -1          -1
          -1          -1
RotTr to input orientation                 R   N=          12
 -5.00000000E-01 -1.28384784E-15  8.66025404E-01 -8.66025404E-01 -4.54853461E-16
 -5.00000000E-01  1.03583857E-15 -1.00000000E+00 -8.84418109E-16  1.80020591E+00
  1.64123166E-16  1.03934937E+00
Number of contracted shells                I               60
Number of primitive shells                 I              114
Pure/Cartesian d shells                    I                0
Pure/Cartesian f shells                    I                0
Highest angular momentum                   I                2
Largest degree of contraction              I                6
Shell types                                I   N=          60
           0          -1          -1          -1          -1          -2
           0          -1          -1          -1          -1          -2
           0          -1          -1          -1          -1          -2
           0           0           0           1           0          -1
          -1          -1          -1          -2           0           0
           0           1           0          -1          -1          -1
          -1          -2           0           0           0           1
           0          -1          -1          -1          -1          -2
           0           0           0           1           0           0
           0           1           0           0           0           1
Number of primitives per shell             I   N=          60
           6           3           1           1           1           1
           6           3           1           1           1           1
           6           3           1           1           1           1
           3           1           1           1           6           3
           1           1           1           1           3           1
           1           1           6           3           1           1
           1           1           3           1           1           1
           6           3           1           1           1           1
           3           1           1           1           3           1
           1           1           3           1           1           1
Shell to atom map                          I   N=          60
           1           1           1           1           1           1
           2           2           2           2           2           2
           3           3           3           3           3           3
           4           4           4           4           5           5
           5           5           5           5           6           6
           6           6           7           7           7           7
           7           7           8           8           8           8
           9           9           9           9           9           9
          10          10          10          10          11          11
          11          11          12          12          12          12
Primitive exponents                        R   N=         114
  4.56324000E+03  6.82024000E+02  1.54973000E+02  4.44553000E+01  1.30290000E+01
  1.82773000E+00  2.09642000E+01  4.80331000E+00  1.45933000E+00  4.83456000E-01
  1.45585000E-01  4.38000000E-02  6.26000000E-01  4.56324000E+03  6.82024000E+02
  1.54973000E+02  4.44553000E+01  1.30290000E+01  1.82773000E+00  2.09642000E+01
  4.80331000E+00  1.45933000E+00  4.83456000E-01  1.45585000E-01  4.38000000E-02
  6.26000000E-01  4.56324000E+03  6.82024000E+02  1.54973000E+02  4.44553000E+01
  1.30290000E+01  1.82773000E+00  2.09642000E+01  4.80331000E+00  1.45933000E+00
  4.83456000E-01  1.45585000E-01  4.38000000E-02  6.26000000E-01  3.38650000E+01
  5.09479000E+00  1.15879000E+00  3.25840000E-01  1.02741000E-01  7.50000000E-01
  4.56324000E+03  6.82024000E+02  1.54973000E+02  4.44553000E+01  1.30290000E+01
  1.82773000E+00  2.09642000E+01  4.80331000E+00  1.45933000E+00  4.83456000E-01
  1.45585000E-01  4.38000000E-02  6.26000000E-01  3.38650000E+01  5.09479000E+00
  1.15879000E+00  3.25840000E-01  1.02741000E-01  7.50000000E-01  4.56324000E+03
  6.82024000E+02  1.54973000E+02  4.44553000E+01  1.30290000E+01  1.82773000E+00
  2.09642000E+01  4.80331000E+00  1.45933000E+00  4.83456000E-01  1.45585000E-01
  4.38000000E-02  6.26000000E-01  3.38650000E+01  5.09479000E+00  1.15879000E+00
  3.25840000E-01  1.02741000E-01  7.50000000E-01  4.56324000E+03  6.82024000E+02
  1.54973000E+02  4.44553000E+01  1.30290000E+01  1.82773000E+00  2.09642000E+01
  4.80331000E+00  1.45933000E+00  4.83456000E-01  1.45585000E-01  4.38000000E-02
  6.26000000E-01  3.38650000E+01  5.09479000E+00  1.15879000E+00  3.25840000E-01
  1.02741000E-01  7.50000000E-01  3.38650000E+01  5.09479000E+00  1.15879000E+00
  3.25840000E-01  1.02741000E-01  7.50000000E-01  3.38650000E+01  5.09479000E+00
  1.15879000E+00  3.25840000E-01  1.02741000E-01  7.50000000E-01
Contraction coefficients                   R   N=         114
  1.96665025E-03  1.52306019E-02  7.61269097E-02  2.60801033E-01  6.16462078E-01
  2.21006028E-01  1.14660081E-01  9.19999648E-01 -3.03068213E-03  1.00000000E+00
  1.00000000E+00  1.00000000E+00  1.00000000E+00  1.96665025E-03  1.52306019E-02
  7.61269097E-02  2.60801033E-01  6.16462078E-01  2.21006028E-01  1.14660081E-01
  9.19999648E-01 -3.03068213E-03  1.00000000E+00  1.00000000E+00  1.00000000E+00
  1.00000000E+00  1.96665025E-03  1.52306019E-02  7.61269097E-02  2.60801033E-01
  6.16462078E-01  2.21006028E-01  1.14660081E-01  9.19999648E-01 -3.03068213E-03
  1.00000000E+00  1.00000000E+00  1.00000000E+00  1.00000000E+00  2.54938145E-02
  1.90373109E-01  8.52161486E-01  1.00000000E+00  1.00000000E+00  1.00000000E+00
  1.96665025E-03  1.52306019E-02  7.61269097E-02  2.60801033E-01  6.16462078E-01
  2.21006028E-01  1.14660081E-01  9.19999648E-01 -3.03068213E-03  1.00000000E+00
  1.00000000E+00  1.00000000E+00  1.00000000E+00  2.54938145E-02  1.90373109E-01
  8.52161486E-01  1.00000000E+00  1.00000000E+00  1.00000000E+00  1.96665025E-03
  1.52306019E-02  7.61269097E-02  2.60801033E-01  6.16462078E-01  2.21006028E-01
  1.14660081E-01  9.19999648E-01 -3.03068213E-03  1.00000000E+00  1.00000000E+00
  1.00000000E+00  1.00000000E+00  2.54938145E-02  1.90373109E-01  8.52161486E-01
  1.00000000E+00  1.00000000E+00  1.00000000E+00  1.96665025E-03  1.52306019E-02
  7.61269097E-02  2.60801033E-01  6.16462078E-01  2.21006028E-01  1.14660081E-01
  9.19999648E-01 -3.03068213E-03  1.00000000E+00  1.00000000E+00  1.00000000E+00
  1.00000000E+00  2.54938145E-02  1.90373109E-01  8.52161486E-01  1.00000000E+00
  1.00000000E+00  1.00000000E+00  2.54938145E-02  1.90373109E-01  8.52161486E-01
  1.00000000E+00  1.00000000E+00  1.00000000E+00  2.54938145E-02  1.90373109E-01
  8.52161486E-01  1.00000000E+00  1.00000000E+00  1.00000000E+00
P(S=P) Contraction coefficients            R   N=         114
  0.00000000E+00  0.00000000E+00  0.00000000E+00  0.00000000E+00  0.00000000E+00
  0.00000000E+00  4.02486927E-02  2.37593957E-01  8.15853851E-01  1.00000000E+00
  1.00000000E+00  1.00000000E+00  0.00000000E+00  0.00000000E+00  0.00000000E+00
  0.00000000E+00  0.00000000E+00  0.00000000E+00  0.00000000E+00  4.02486927E-02
  2.37593957E-01  8.15853851E-01  1.00000000E+00  1.00000000E+00  1.00000000E+00
  0.00000000E+00  0.00000000E+00  0.00000000E+00  0.00000000E+00  0.00000000E+00
  0.00000000E+00  0.00000000E+00  4.02486927E-02  2.37593957E-01  8.15853851E-01
  1.00000000E+00  1.00000000E+00  1.00000000E+00  0.00000000E+00  0.00000000E+00
  0.00000000E+00  0.00000000E+00  0.00000000E+00  0.00000000E+00  0.00000000E+00
  0.00000000E+00  0.00000000E+00  0.00000000E+00  0.00000000E+00  0.00000000E+00
  0.00000000E+00  4.02486927E-02  2.37593957E-01  8.15853851E-01  1.00000000E+00
  1.00000000E+00  1.00000000E+00  0.00000000E+00  0.00000000E+00  0.00000000E+00
  0.00000000E+00  0.00000000E+00  0.00000000E+00  0.00000000E+00  0.00000000E+00
  0.00000000E+00  0.00000000E+00  0.00000000E+00  0.00000000E+00  0.00000000E+00
  4.02486927E-02  2.37593957E-01  8.15853851E-01  1.00000000E+00  1.00000000E+00
  1.00000000E+00  0.00000000E+00  0.00000000E+00  0.00000000E+00  0.00000000E+00
  0.00000000E+00  0.00000000E+00  0.00000000E+00  0.00000000E+00  0.00000000E+00
  0.00000000E+00  0.00000000E+00  0.00000000E+00  0.00000000E+00  4.02486927E-02
  2.37593957E-01  8.15853851E-01  1.00000000E+00  1.00000000E+00  1.00000000E+00
  0.00000000E+00  0.00000000E+00  0.00000000E+00  0.00000000E+00  0.00000000E+00
  0.00000000E+00  0.00000000E+00  0.00000000E+00  0.00000000E+00  0.00000000E+00
  0.00000000E+00  0.00000000E+00  0.00000000E+00  0.00000000E+00  0.00000000E+00
  0.00000000E+00  0.00000000E+00  0.00000000E+00  0.00000000E+00
Coordinates of each shell                  R   N=         180
 -1.30643658E-16  2.63551780E+00 -4.37090762E-31 -1.30643658E-16  2.63551780E+00
 -4.37090762E-31 -1.30643658E-16  2.63551780E+00 -4.37090762E-31 -1.30643658E-16
  2.63551780E+00 -4.37090762E-31 -1.30643658E-16  2.63551780E+00 -4.37090762E-31
 -1.30643658E-16  2.63551780E+00 -4.37090762E-31  2.28242537E+00  1.31775890E+00
 -3.64294492E-31  2.28242537E+00  1.31775890E+00 -3.64294492E-31  2.28242537E+00
  1.31775890E+00 -3.64294492E-31  2.28242537E+00  1.31775890E+00 -3.64294492E-31
  2.28242537E+00  1.31775890E+00 -3.64294492E-31  2.28242537E+00  1.31775890E+00
 -3.64294492E-31  2.28242537E+00 -1.31775890E+00 -7.20239417E-31  2.28242537E+00
 -1.31775890E+00 -7.20239417E-31  2.28242537E+00 -1.31775890E+00 -7.20239417E-31
  2.28242537E+00 -1.31775890E+00 -7.20239417E-31  2.28242537E+00 -1.31775890E+00
 -7.20239417E-31  2.28242537E+00 -1.31775890E+00 -7.20239417E-31  4.05711136E+00
  2.34237433E+00 -7.72788096E-31  4.05711136E+00  2.34237433E+00 -7.72788096E-31
  4.05711136E+00  2.34237433E+00 -7.72788096E-31  4.05711136E+00  2.34237433E+00
 -7.72788096E-31 -4.46245148E-16 -2.63551780E+00  2.37370666E-31 -4.46245148E-16
 -2.63551780E+00  2.37370666E-31 -4.46245148E-16 -2.63551780E+00  2.37370666E-31
 -4.46245148E-16 -2.63551780E+00  2.37370666E-31 -4.46245148E-16 -2.63551780E+00
  2.37370666E-31 -4.46245148E-16 -2.63551780E+00  2.37370666E-31  4.05711136E+00
 -2.34237433E+00 -2.86858123E-16  4.05711136E+00 -2.34237433E+00 -2.86858123E-16
  4.05711136E+00 -2.34237433E+00 -2.86858123E-16  4.05711136E+00 -2.34237433E+00
 -2.86858123E-16 -2.28242537E+00 -1.31775890E+00 -1.40813768E-30 -2.28242537E+00
 -1.31775890E+00 -1.40813768E-30 -2.28242537E+00 -1.31775890E+00 -1.40813768E-30
 -2.28242537E+00 -1.31775890E+00 -1.40813768E-30 -2.28242537E+00 -1.31775890E+00
 -1.40813768E-30 -2.28242537E+00 -1.31775890E+00 -1.40813768E-30 -3.27551698E-15
 -4.68474867E+00  4.27202394E-31 -3.27551698E-15 -4.68474867E+00  4.27202394E-31
 -3.27551698E-15 -4.68474867E+00  4.27202394E-31 -3.27551698E-15 -4.68474867E+00
  4.27202394E-31 -2.28242537E+00  1.31775890E+00 -4.61382027E-31 -2.28242537E+00
  1.31775890E+00 -4.61382027E-31 -2.28242537E+00  1.31775890E+00 -4.61382027E-31
 -2.28242537E+00  1.31775890E+00 -4.61382027E-31 -2.28242537E+00  1.31775890E+00
 -4.61382027E-31 -2.28242537E+00  1.31775890E+00 -4.61382027E-31 -4.05711136E+00
 -2.34237433E+00 -1.59379462E-30 -4.05711136E+00 -2.34237433E+00 -1.59379462E-30
 -4.05711136E+00 -2.34237433E+00 -1.59379462E-30 -4.05711136E+00 -2.34237433E+00
 -1.59379462E-30 -4.05711136E+00  2.34237433E+00 -4.96852844E-16 -4.05711136E+00
  2.34237433E+00 -4.96852844E-16 -4.05711136E+00  2.34237433E+00 -4.96852844E-16
 -4.05711136E+00  2.34237433E+00 -4.96852844E-16  1.73714683E-15  4.68474867E+00
 -2.01160386E-30  1.73714683E-15  4.68474867E+00 -2.01160386E-30  1.73714683E-15
  4.68474867E+00 -2.01160386E-30  1.73714683E-15  4.68474867E+00 -2.01160386E-30
Num ILSW                                   I              100
ILSW                                       I   N=         100
           0           0           0           1           2           0
           0           0           0           0         402          -1
           5           0           0           0           2           0
           0           0           0           0           1           0
           1           0           0           0           0           0
           0           0      100000           0          -1           0
           0           0           0           0           0           0
           0           0           0           1           0           0
           0 -2000000000           1           0           0           0
           0           0           4          52           0           0
           0           0           5           0           0           0
           0           0           0          12           0           1
           0           0           0           0           0           0
           0           0           0           0           0           0
           0           0           0           0           0           0
           0           0           0           0           0           0
           0           0           0           0
Num RLSW                                   I               52
RLSW                                       R   N=          52
  8.00000000E-01  7.20000000E-01  1.00000000E+00  8.10000000E-01  2.00000000E-01
  0.00000000E+00  0.00000000E+00  1.00000000E+00  0.00000000E+00  0.00000000E+00
  0.00000000E+00  0.00000000E+00  1.00000000E+00  0.00000000E+00  0.00000000E+00
  0.00000000E+00  0.00000000E+00  1.00000000E+00  0.00000000E+00  0.00000000E+00
  0.00000000E+00  0.00000000E+00  1.00000000E+00  0.00000000E+00  0.00000000E+00
  0.00000000E+00  0.00000000E+00  1.00000000E+00  0.00000000E+00  0.00000000E+00
  0.00000000E+00  0.00000000E+00  1.00000000E+00  0.00000000E+00  0.00000000E+00
  0.00000000E+00  0.00000000E+00  0.00000000E+00  1.00000000E+00  1.00000000E+00
  0.00000000E+00  1.00000000E+00  0.00000000E+00  0.00000000E+00  0.00000000E+00
  0.00000000E+00  0.00000000E+00  0.00000000E+00  0.00000000E+00  0.00000000E+00
  0.00000000E+00  0.00000000E+00
MxBond                                     I                3
NBond                                      I   N=          12
           3           3           3           1           3           1
           3           1           3           1           1           1
IBond                                      I   N=          36
           2           9          12           1           3           4
           2           5           6           2           0           0
           3           7           8           3           0           0
           5           9          10           5           0           0
           1           7          11           7           0           0
           9           0           0           1           0           0
RBond                                      R   N=          36
  3.00000000E+00  3.00000000E+00  2.00000000E+00  3.00000000E+00  3.00000000E+00
  2.00000000E+00  3.00000000E+00  3.00000000E+00  2.00000000E+00  2.00000000E+00
  0.00000000E+00  0.00000000E+00  3.00000000E+00  3.00000000E+00  2.00000000E+00
  2.00000000E+00  0.00000000E+00  0.00000000E+00  3.00000000E+00  3.00000000E+00
  2.00000000E+00  2.00000000E+00  0.00000000E+00  0.00000000E+00  3.00000000E+00
  3.00000000E+00  2.00000000E+00  2.00000000E+00  0.00000000E+00  0.00000000E+00
  2.00000000E+00  0.00000000E+00  0.00000000E+00  2.00000000E+00  0.00000000E+00
  0.00000000E+00
Virial Ratio                               R      2.004736822396300E+00
SCF Energy                                 R     -2.323112376698388E+02
Total Energy                               R     -2.323112376698388E+02
RMS Force                                  R      4.434599533355411E-07
RMS Density                                R      2.017494311432653E-10
NImag                                      I                0
Job Status                                 I                1
Nuclear derivative order                   I                3
External E-field                           R   N=          35
  0.00000000E+00  0.00000000E+00  0.00000000E+00  0.00000000E+00  0.00000000E+00
  0.00000000E+00  0.00000000E+00  0.00000000E+00  0.00000000E+00  0.00000000E+00
  0.00000000E+00  0.00000000E+00  0.00000000E+00  0.00000000E+00  0.00000000E+00
  0.00000000E+00  0.00000000E+00  0.00000000E+00  0.00000000E+00  0.00000000E+00
  0.00000000E+00  0.00000000E+00  0.00000000E+00  0.00000000E+00  0.00000000E+00
  0.00000000E+00  0.00000000E+00  0.00000000E+00  0.00000000E+00  0.00000000E+00
  0.00000000E+00  0.00000000E+00  0.00000000E+00  0.00000000E+00  0.00000000E+00
IOpCl                                      I                0
IROHF                                      I                0
Alpha Orbital Energies                     R   N=         168