title                                                                   
Freq      RMP2-FC                                                     Aug-CC-pVTZ         
Number of atoms                            I                4
Info1-9                                    I   N=           9
          25          20        1002           0           0         100
           6           2           1
Full Title                                 C   N=           1
title       
Route                                      C   N=           4
# opt=(z-matrix,tight) mp2/aug-cc-pvtz freq=anh 
Charge                                     I               -1
Multiplicity                               I                1
Number of electrons                        I               46
Number of alpha electrons                  I               23
Number of beta electrons                   I               23
Number of basis functions                  I              151
Number of independent functions            I              151
Number of point charges in /Mol/           I                0
Number of translation vectors              I                0
Atomic numbers                             I   N=           4
           8           1           1          35
Nuclear charges                            R   N=           4
  8.00000000E+00  1.00000000E+00  1.00000000E+00  3.50000000E+01
Current cartesian coordinates              R   N=          12
  3.40346112E-02  4.83291892E+00 -6.30281474E-25  3.17472500E-01  2.99141748E+00
 -3.56733808E-25 -1.78096078E+00  4.89239338E+00 -1.24660085E-24  3.40346112E-02
 -1.32991892E+00 -5.30954921E-25
Number of symbols in /Mol/                 I                0
Force Field                                I                0
Atom Types                                 C   N=           4
                                                
Int Atom Types                             I   N=           4
           0           0           0           0
MM charges                                 R   N=           4
  0.00000000E+00  0.00000000E+00  0.00000000E+00  0.00000000E+00
Integer atomic weights                     I   N=           4
          16           1           2          79
Real atomic weights                        R   N=           4
  1.59949146E+01  1.00782504E+00  2.01410179E+00  7.89183361E+01
Atom fragment info                         I   N=           4
           0           0           0           0
Atom residue num                           I   N=           4
           0           0           0           0
Nuclear spins                              I   N=           4
           0           1           2           3
Nuclear ZEff                               R   N=           4
 -5.60000000E+00 -1.00000000E+00 -1.00000000E+00 -2.45000000E+01
Nuclear ZNuc                               R   N=           4
  8.00000000E+00  1.00000000E+00  1.00000000E+00  3.50000000E+01
Nuclear QMom                               R   N=           4
  0.00000000E+00  0.00000000E+00  2.86000000E-01  3.13000000E+01
Nuclear GFac                               R   N=           4
  0.00000000E+00  2.79284600E+00  8.57438000E-01  2.10639900E+00
MicOpt                                     I   N=           4
          -1          -1          -1          -1
Number of residues                         I                0
Number of secondary structures             I                0
SymInf integers                            I   N=          26
           1           2           1           1           1           1
           1          -1           0           0           0           0
           0           0           0           0           0           0
           0           0           0           0           0           0
           0           0
RotTr to input orientation                 R   N=          12
 -9.88361211E-01  4.25995362E-10  1.52125330E-01 -1.52125330E-01  1.61117607E-09
 -9.88361211E-01 -6.66137983E-10 -1.00000000E+00 -1.52761924E-09  7.68847875E-01
 -7.52523828E-09  4.77149208E+00
Number of contracted shells                I               51
Number of primitive shells                 I              140
Pure/Cartesian d shells                    I                0
Pure/Cartesian f shells                    I                0
Highest angular momentum                   I                3
Largest degree of contraction              I               15
Shell types                                I   N=          51
           0           0           0           0           0           1
           1           1           1          -2          -2          -2
          -3          -3           0           0           0           0
           1           1           1          -2          -2           0
           0           0           0           1           1           1
          -2          -2           0           0           0           0
           0           0           0           1           1           1
           1           1           1          -2          -2          -2
          -2          -3          -3
Number of primitives per shell             I   N=          51
           7           6           1           1           1           3
           1           1           1           1           1           1
           1           1           3           1           1           1
           1           1           1           1           1           3
           1           1           1           1           1           1
           1           1          15          12          10          10
           1           1           1           9           9           8
           1           1           1           7           1           1
           1           1           1
Shell to atom map                          I   N=          51
           1           1           1           1           1           1
           1           1           1           1           1           1
           1           1           2           2           2           2
           2           2           2           2           2           3
           3           3           3           3           3           3
           3           3           4           4           4           4
           4           4           4           4           4           4
           4           4           4           4           4           4
           4           4           4
Primitive exponents                        R   N=         140
  1.53300000E+04  2.29900000E+03  5.22400000E+02  1.47300000E+02  4.75500000E+01
  1.67600000E+01  6.20700000E+00  5.22400000E+02  1.47300000E+02  4.75500000E+01
  1.67600000E+01  6.20700000E+00  6.88200000E-01  1.75200000E+00  2.38400000E-01
  7.37600000E-02  3.44600000E+01  7.74900000E+00  2.28000000E+00  7.15600000E-01
  2.14000000E-01  5.97400000E-02  2.31400000E+00  6.45000000E-01  2.14000000E-01
  1.42800000E+00  5.00000000E-01  3.38700000E+01  5.09500000E+00  1.15900000E+00
  3.25800000E-01  1.02700000E-01  2.52600000E-02  1.40700000E+00  3.88000000E-01
  1.02000000E-01  1.05700000E+00  2.47000000E-01  3.38700000E+01  5.09500000E+00
  1.15900000E+00  3.25800000E-01  1.02700000E-01  2.52600000E-02  1.40700000E+00
  3.88000000E-01  1.02000000E-01  1.05700000E+00  2.47000000E-01  1.06390000E+07
  1.59340000E+06  3.62610000E+05  1.02700000E+05  3.35010000E+04  1.20930000E+04
  4.71590000E+03  1.95560000E+03  8.52610000E+02  3.87670000E+02  1.82680000E+02
  8.82450000E+01  3.92630000E+01  9.40570000E+00  1.89950000E+00  3.35010000E+04
  1.20930000E+04  4.71590000E+03  1.95560000E+03  8.52610000E+02  3.87670000E+02
  1.82680000E+02  8.82450000E+01  3.92630000E+01  1.92340000E+01  9.40570000E+00
  1.89950000E+00  4.71590000E+03  8.52610000E+02  3.87670000E+02  1.82680000E+02
  8.82450000E+01  3.92630000E+01  1.92340000E+01  9.40570000E+00  4.16010000E+00
  1.89950000E+00  4.71590000E+03  8.52610000E+02  3.87670000E+02  8.82450000E+01
  3.92630000E+01  1.92340000E+01  9.40570000E+00  4.16010000E+00  1.89950000E+00
  3.01140000E-01  6.04720000E-01  1.25150000E-01  4.55930000E-02  8.67650000E+03
  2.05590000E+03  6.66230000E+02  2.53100000E+02  1.06120000E+02  4.72420000E+01
  2.18250000E+01  9.96840000E+00  1.99820000E+00  8.67650000E+03  6.66230000E+02
  2.53100000E+02  1.06120000E+02  4.72420000E+01  2.18250000E+01  9.96840000E+00
  4.51710000E+00  1.99820000E+00  6.66230000E+02  1.06120000E+02  4.72420000E+01
  2.18250000E+01  9.96840000E+00  4.51710000E+00  1.99820000E+00  2.81450000E-01
  7.09880000E-01  1.02040000E-01  3.51420000E-02  4.03830000E+02  1.21170000E+02
  4.63450000E+01  1.97210000E+01  8.86240000E+00  3.99620000E+00  1.76360000E+00
  7.06190000E-01  2.63900000E-01  1.04700000E-01  5.51500000E-01  2.58000000E-01
Contraction coefficients                   R   N=         140
  5.19808943E-04  4.02025621E-03  2.07128267E-02  8.10105536E-02  2.35962985E-01
  4.42653446E-01  3.57064423E-01 -4.42115008E-05 -1.22591041E-03 -1.05517725E-02
 -6.74452633E-02 -1.71198607E-01  1.07329856E+00  1.00000000E+00  1.00000000E+00
  1.00000000E+00  4.11634896E-02  2.57762836E-01  8.02419274E-01  1.00000000E+00
  1.00000000E+00  1.00000000E+00  1.00000000E+00  1.00000000E+00  1.00000000E+00
  1.00000000E+00  1.00000000E+00  2.54948632E-02  1.90362766E-01  8.52162022E-01
  1.00000000E+00  1.00000000E+00  1.00000000E+00  1.00000000E+00  1.00000000E+00
  1.00000000E+00  1.00000000E+00  1.00000000E+00  2.54948632E-02  1.90362766E-01
  8.52162022E-01  1.00000000E+00  1.00000000E+00  1.00000000E+00  1.00000000E+00
  1.00000000E+00  1.00000000E+00  1.00000000E+00  1.00000000E+00  5.89674518E-06
  4.60752740E-05  2.42070343E-04  1.02205299E-03  3.70930499E-03  1.19720307E-02
  3.46735726E-02  8.90729487E-02  1.93334549E-01  3.20663919E-01  3.29580713E-01
  1.49250790E-01  1.55764867E-02  7.93747636E-04  2.65221775E-04 -5.68536848E-06
 -3.52666574E-05 -3.27539377E-04 -1.87629276E-03 -1.01414527E-02 -3.80702440E-02
 -9.57536910E-02 -4.73840598E-02  3.47577995E-01  5.73945554E-01  2.14222079E-01
 -1.02928963E-02  7.18105399E-06  1.20828593E-04  4.42852463E-04  3.05163083E-03
  3.69571776E-03 -4.41792565E-02 -2.33790718E-01 -4.89037435E-02  6.44374705E-01
  5.44424123E-01  2.45813907E-06  1.21542842E-05 -4.20845287E-05 -2.71411136E-04
  1.88335237E-03  1.04009470E-02  6.18574958E-03 -1.11556547E-01 -4.47970305E-01
  1.18314733E+00  1.00000000E+00  1.00000000E+00  1.00000000E+00  4.37079993E-04
  3.79355062E-03  2.05440673E-02  7.95459389E-02  2.18602295E-01  3.89303910E-01
  3.60668111E-01  1.10677963E-01 -1.34807692E-03  1.00103778E-06 -7.06114784E-05
 -1.15560817E-03 -7.09755620E-03 -2.44937124E-02 -1.01982599E-02  2.19854720E-01
  5.15741017E-01  3.67494091E-01 -2.33484889E-05 -3.27796533E-04  4.19438933E-04
 -2.20691716E-03 -6.45224464E-03 -4.68458724E-02 -4.09196666E-02  1.01815889E+00
  1.00000000E+00  1.00000000E+00  1.00000000E+00  1.51744738E-03  1.30531170E-02
  5.97884776E-02  1.75631556E-01  3.28164786E-01  3.96050780E-01  2.81996460E-01
  1.00000000E+00  1.00000000E+00  1.00000000E+00  1.00000000E+00  1.00000000E+00
Coordinates of each shell                  R   N=         153
  3.40346112E-02  4.83291892E+00 -4.83490234E-25  3.40346112E-02  4.83291892E+00
 -4.83490234E-25  3.40346112E-02  4.83291892E+00 -4.83490234E-25  3.40346112E-02
  4.83291892E+00 -4.83490234E-25  3.40346112E-02  4.83291892E+00 -4.83490234E-25
  3.40346112E-02  4.83291892E+00 -4.83490234E-25  3.40346112E-02  4.83291892E+00
 -4.83490234E-25  3.40346112E-02  4.83291892E+00 -4.83490234E-25  3.40346112E-02
  4.83291892E+00 -4.83490234E-25  3.40346112E-02  4.83291892E+00 -4.83490234E-25
  3.40346112E-02  4.83291892E+00 -4.83490234E-25  3.40346112E-02  4.83291892E+00
 -4.83490234E-25  3.40346112E-02  4.83291892E+00 -4.83490234E-25  3.40346112E-02
  4.83291892E+00 -4.83490234E-25  3.17472500E-01  2.99141748E+00 -2.59292254E-25
  3.17472500E-01  2.99141748E+00 -2.59292254E-25  3.17472500E-01  2.99141748E+00
 -2.59292254E-25  3.17472500E-01  2.99141748E+00 -2.59292254E-25  3.17472500E-01
  2.99141748E+00 -2.59292254E-25  3.17472500E-01  2.99141748E+00 -2.59292254E-25
  3.17472500E-01  2.99141748E+00 -2.59292254E-25  3.17472500E-01  2.99141748E+00
 -2.59292254E-25  3.17472500E-01  2.99141748E+00 -2.59292254E-25 -1.78096078E+00
  4.89239338E+00 -7.34260270E-25 -1.78096078E+00  4.89239338E+00 -7.34260270E-25
 -1.78096078E+00  4.89239338E+00 -7.34260270E-25 -1.78096078E+00  4.89239338E+00
 -7.34260270E-25 -1.78096078E+00  4.89239338E+00 -7.34260270E-25 -1.78096078E+00
  4.89239338E+00 -7.34260270E-25 -1.78096078E+00  4.89239338E+00 -7.34260270E-25
 -1.78096078E+00  4.89239338E+00 -7.34260270E-25 -1.78096078E+00  4.89239338E+00
 -7.34260270E-25  3.40346112E-02 -1.32991892E+00  1.38899268E-25  3.40346112E-02
 -1.32991892E+00  1.38899268E-25  3.40346112E-02 -1.32991892E+00  1.38899268E-25
  3.40346112E-02 -1.32991892E+00  1.38899268E-25  3.40346112E-02 -1.32991892E+00
  1.38899268E-25  3.40346112E-02 -1.32991892E+00  1.38899268E-25  3.40346112E-02
 -1.32991892E+00  1.38899268E-25  3.40346112E-02 -1.32991892E+00  1.38899268E-25
  3.40346112E-02 -1.32991892E+00  1.38899268E-25  3.40346112E-02 -1.32991892E+00
  1.38899268E-25  3.40346112E-02 -1.32991892E+00  1.38899268E-25  3.40346112E-02
 -1.32991892E+00  1.38899268E-25  3.40346112E-02 -1.32991892E+00  1.38899268E-25
  3.40346112E-02 -1.32991892E+00  1.38899268E-25  3.40346112E-02 -1.32991892E+00
  1.38899268E-25  3.40346112E-02 -1.32991892E+00  1.38899268E-25  3.40346112E-02
 -1.32991892E+00  1.38899268E-25  3.40346112E-02 -1.32991892E+00  1.38899268E-25
  3.40346112E-02 -1.32991892E+00  1.38899268E-25
Num ILSW                                   I              100
ILSW                                       I   N=         100
           0           0           0           1           2           0
           0           0           0           0           0          -1
           5           0           0           0           2           0
           0           0           1           0           1           0
           1           0           0           0           0           0
           0           0      100000           0          -1           0
           0           0           0           0           0           0
           0           0           0           1           1           0
           0 -2000000000           1           0           0           0
           0           0           4          52           0           0
           0           0           0           0           0           0
           0           0           0           0           4           1
           0           0           0           0           0           0
           0           0           0           0           0           0
           0           0           0           0           0           0
           0           0           0           0           0           0
           0           0           0           0
Num RLSW                                   I               52
RLSW                                       R   N=          52
  1.00000000E+00  1.00000000E+00  1.00000000E+00  1.00000000E+00  1.00000000E+00
  0.00000000E+00  0.00000000E+00  1.00000000E+00  0.00000000E+00  0.00000000E+00
  0.00000000E+00  0.00000000E+00  1.00000000E+00  0.00000000E+00  0.00000000E+00
  0.00000000E+00  0.00000000E+00  1.00000000E+00  0.00000000E+00  0.00000000E+00
  0.00000000E+00  0.00000000E+00  1.00000000E+00  0.00000000E+00  0.00000000E+00
  0.00000000E+00  0.00000000E+00  1.00000000E+00  0.00000000E+00  0.00000000E+00
  0.00000000E+00  0.00000000E+00  1.00000000E+00  0.00000000E+00  0.00000000E+00
  0.00000000E+00  0.00000000E+00  0.00000000E+00  1.00000000E+00  1.00000000E+00
  0.00000000E+00  1.00000000E+00  0.00000000E+00  0.00000000E+00  0.00000000E+00
  0.00000000E+00  0.00000000E+00  0.00000000E+00  0.00000000E+00  0.00000000E+00
  0.00000000E+00  0.00000000E+00
MxBond                                     I                2
NBond                                      I   N=           4
           2           1           1           0
IBond                                      I   N=           8
           2           3           1           0           1           0
           0           0
RBond                                      R   N=           8
  1.00000000E+00  1.00000000E+00  1.00000000E+00  0.00000000E+00  1.00000000E+00
  0.00000000E+00  0.00000000E+00  0.00000000E+00
Virial Ratio                               R      2.000034269184286E+00
SCF Energy                                 R     -2.648608005570590E+03
MP2 Energy                                 R     -2.649126627561551E+03
Total Energy                               R     -2.649126627561551E+03
Post-SCF wavefunction norm                 R      1.516528286251932E+00
RMS Force                                  R      4.075918812023532E-07
RMS Density                                R      2.740483801304665E-09
NImag                                      I                0
Job Status                                 I                1
Nuclear derivative order                   I                3
External E-field                           R   N=          35
  0.00000000E+00  0.00000000E+00  0.00000000E+00  0.00000000E+00  0.00000000E+00
  0.00000000E+00  0.00000000E+00  0.00000000E+00  0.00000000E+00  0.00000000E+00
  0.00000000E+00  0.00000000E+00  0.00000000E+00  0.00000000E+00  0.00000000E+00
  0.00000000E+00  0.00000000E+00  0.00000000E+00  0.00000000E+00  0.00000000E+00
  0.00000000E+00  0.00000000E+00  0.00000000E+00  0.00000000E+00  0.00000000E+00
  0.00000000E+00  0.00000000E+00  0.00000000E+00  0.00000000E+00  0.00000000E+00
  0.00000000E+00  0.00000000E+00  0.00000000E+00  0.00000000E+00  0.00000000E+00
IOpCl                                      I                0
IROHF                                      I                0
Alpha Orbital Energies                     R   N=         151
 -4.89740914E+02 -6.48811713E+01 -5.82356513E+01 -5.82356439E+01 -5.82356411E+01
 -2.03884703E+01 -9.55362808E+00 -7.16116454E+00 -7.16099619E+00 -7.16094179E+00
 -2.90281457E+00 -2.90275703E+00 -2.90269110E+00 -2.90253311E+00 -2.90252695E+00
 -1.17321041E+00 -7.12196419E-01 -5.28021438E-01 -4.19807786E-01 -3.34485846E-01
 -1.66433689E-01 -1.61667078E-01 -1.61103663E-01  1.38952691E-01  1.72359734E-01
  2.32339998E-01  2.41154618E-01  2.50734978E-01  2.76033679E-01  2.94882502E-01
  2.98865883E-01  3.37083362E-01  3.48565420E-01  4.05225656E-01  4.09885103E-01
  4.15854485E-01  4.63280431E-01  4.75763740E-01  4.86785955E-01  5.18965033E-01
  5.42972994E-01  5.75828261E-01  5.95117782E-01  6.02996902E-01  6.29445983E-01
  6.99849849E-01  7.32020487E-01  7.45575568E-01  7.49943419E-01  8.25709059E-01
  8.62221654E-01  8.81610598E-01  8.85516473E-01  8.98320342E-01  9.64721462E-01
  9.98705405E-01  1.01682665E+00  1.01778744E+00  1.03269797E+00  1.03480598E+00
  1.04552079E+00  1.07105819E+00  1.09415450E+00  1.09916085E+00  1.11229873E+00
  1.15745497E+00  1.18252539E+00  1.18391705E+00  1.18995445E+00  1.19989379E+00
  1.22730331E+00  1.24427629E+00  1.25103613E+00  1.32691896E+00  1.36931708E+00
  1.40486976E+00  1.45063594E+00  1.46423279E+00  1.49961694E+00  1.61950680E+00
  1.64446348E+00  1.67280154E+00  1.69788787E+00  1.75776049E+00  1.82063051E+00
  2.05003816E+00  2.07629869E+00  2.19008800E+00  2.39438993E+00  2.40821848E+00
  2.42754668E+00  2.44087068E+00  2.51677534E+00  2.52080986E+00  2.54763088E+00
  2.55631586E+00  2.56126834E+00  2.56308607E+00  2.56419988E+00  2.57343390E+00
  2.58861935E+00  2.60996140E+00  2.62087275E+00  2.65238222E+00  2.66061311E+00
  2.69117235E+00  2.71874931E+00  2.75839091E+00  2.76562375E+00  2.78331384E+00
  2.91527073E+00  2.91865117E+00  2.99609649E+00  3.12186305E+00  3.12323593E+00
  3.13592109E+00  3.86565369E+00  4.11945334E+00  4.22884310E+00  4.31972939E+00
  4.35358072E+00  4.42630447E+00  4.45798474E+00  4.52217288E+00  4.56110940E+00
  4.63593485E+00  4.68177240E+00  4.78641895E+00  4.99427975E+00  5.11430563E+00
  5.30434754E+00  5.41827756E+00  5.45125566E+00  5.51401853E+00  5.69711562E+00
  5.82512412E+00  6.40765641E+00  6.69579316E+00  6.90332854E+00  7.13802041E+00
  7.29472553E+00  7.44010333E+00  7.44986544E+00  7.48543293E+00  7.56427708E+00
  7.59604525E+00  7.81354742E+00  8.07429972E+00  8.14089761E+00  8.99619575E+00
  1.64174043E+01
Alpha MO coefficients                      R   N=       22801
  1.10649208E-07  5.82668359E-07 -1.53456627E-08  1.56021922E-06  6.42240027E-06
 -7.31280627E-09  1.85785588E-08  0.00000000E+00  4.42560859E-08 -1.45325803E-07
  0.00000000E+00  8.04895367E-07  4.13802863E-06  0.00000000E+00  1.17966138E-06
 -1.10506104E-06  0.00000000E+00 -2.76967004E-08  0.00000000E+00  0.00000000E+00
 -4.14701819E-08  2.61318312E-08  1.56249390E-07  0.00000000E+00  0.00000000E+00
  3.31682431E-07 -1.49197291E-07  9.95437240E-07  0.00000000E+00  0.00000000E+00
  2.27648218E-06 -1.36617932E-07  0.00000000E+00 -6.02191800E-09  2.22080391E-08
  0.00000000E+00  0.00000000E+00 -2.15229493E-08  1.74424204E-08  0.00000000E+00
  2.64878381E-08 -2.37210858E-07  0.00000000E+00  0.00000000E+00 -3.94410756E-08
 -3.06023105E-07  1.07224428E-07  5.17676916E-06 -2.74832582E-06 -1.84236182E-06
  3.23845606E-08  6.21654386E-08  0.00000000E+00 -9.20634379E-07 -1.82756089E-08
  0.00000000E+00 -1.47658979E-06 -9.38195726E-06  0.00000000E+00 -3.68028279E-08
  0.00000000E+00  0.00000000E+00 -4.89937476E-08 -1.08474026E-07  9.84679269E-07
  0.00000000E+00  0.00000000E+00  1.93242532E-06 -2.78257074E-07 -1.45708137E-09
 -4.43041124E-07 -4.85585584E-07  9.01514158E-07 -4.48168302E-08  1.22260130E-08
  0.00000000E+00  4.55266273E-08 -1.01075548E-07  0.00000000E+00 -6.10057296E-08
  6.45512504E-07  0.00000000E+00  1.20995910E-08  0.00000000E+00  0.00000000E+00
 -5.76600622E-09 -7.06590369E-09 -5.00213821E-08  0.00000000E+00  0.00000000E+00
  1.07721922E-07  9.26552634E-08  1.00053504E+00 -1.74599610E-03 -3.66381482E-04
  2.61554383E-05 -3.86089599E-05 -1.50736646E-05  6.35087340E-07 -2.10880297E-08
  2.84873933E-07  0.00000000E+00  3.57049728E-08  1.10377992E-07  0.00000000E+00
  1.80442581E-07  1.79775698E-06  0.00000000E+00 -7.56817147E-08 -5.27246604E-07
  0.00000000E+00 -3.24696135E-07 -5.35314816E-06  0.00000000E+00  7.78789375E-08
  3.38993470E-08  0.00000000E+00 -6.41084953E-09  0.00000000E+00  0.00000000E+00
 -6.06881154E-09  5.92319784E-09  9.18800115E-09  0.00000000E+00  0.00000000E+00
  2.69930856E-08 -2.88553478E-08 -2.43579363E-07  0.00000000E+00  0.00000000E+00
 -4.65293099E-07  1.23688154E-07  9.55442143E-07  0.00000000E+00  0.00000000E+00
  1.73679220E-06 -2.09010296E-07  0.00000000E+00 -1.23790905E-08 -1.48457666E-07
  0.00000000E+00  0.00000000E+00 -3.88848194E-08 -2.10787977E-07  0.00000000E+00
  8.75766806E-09  1.44188915E-07  0.00000000E+00  0.00000000E+00  1.70229448E-08
  2.23900922E-07  1.80621267E-07  1.39690137E-06  2.33212102E-07  2.75961110E-07
  2.25424894E-05 -1.56556199E-08 -9.69426877E-08  0.00000000E+00  2.87359495E-07
 -4.66434188E-07  0.00000000E+00  4.39520074E-06  1.68408439E-05  0.00000000E+00
  4.13780827E-06 -3.86336739E-06  0.00000000E+00 -1.34295067E-07  0.00000000E+00
  0.00000000E+00 -1.30765287E-07  8.80730537E-08  9.00790255E-07  0.00000000E+00
  0.00000000E+00  1.02428949E-06 -3.71311720E-07  4.16697708E-06  0.00000000E+00
  0.00000000E+00  8.00174890E-06 -4.94621362E-07  0.00000000E+00 -1.07300278E-08
  1.04540802E-07  0.00000000E+00  0.00000000E+00 -2.17496001E-08  5.35530153E-08
  0.00000000E+00 -1.04586438E-08 -1.11006846E-06  0.00000000E+00  0.00000000E+00
 -3.04326198E-08 -1.28074614E-06  1.97010419E-07  2.05892816E-05  6.17911338E-07
 -4.39775708E-06  9.59191048E-08  6.55493344E-07  0.00000000E+00 -3.42653052E-06
  3.77243180E-07  0.00000000E+00 -5.96889324E-06 -3.91805951E-05  0.00000000E+00
 -1.57886942E-07  0.00000000E+00  0.00000000E+00 -2.36786542E-07 -3.77142346E-07
  2.19841556E-06  0.00000000E+00  0.00000000E+00  4.76219756E-06 -4.74664794E-07
 -6.63406236E-08  1.79838972E-06 -1.69928983E-06  2.44617563E-06 -4.63903096E-08
  9.82671633E-08  0.00000000E+00  1.15832259E-06 -7.66211076E-07  0.00000000E+00
 -2.11845539E-07  2.51780425E-06  0.00000000E+00 -6.54123142E-08  0.00000000E+00
  0.00000000E+00  3.01689640E-08 -1.46382297E-08 -1.04447824E-07  0.00000000E+00
  0.00000000E+00  3.73088403E-07  1.48173846E-07 -3.14071574E-01  1.04046650E+00
  2.14023305E-02  3.19787780E-05 -7.73230398E-05 -5.85640723E-05 -5.03355435E-06
 -3.15981018E-06  2.79259297E-05  0.00000000E+00 -1.47793358E-07  4.32231496E-06
  0.00000000E+00  4.71936017E-07  6.88620937E-06  0.00000000E+00 -1.05860426E-07
 -3.26605760E-06  0.00000000E+00 -1.34095965E-06 -2.63985393E-05  0.00000000E+00
  2.64200542E-08 -6.79985845E-07  0.00000000E+00 -3.42910995E-07  0.00000000E+00
  0.00000000E+00 -1.48681226E-07  1.24785418E-07 -1.21751381E-07  0.00000000E+00
  0.00000000E+00 -2.06675540E-07 -1.19229509E-07 -1.45756911E-07  0.00000000E+00
  0.00000000E+00 -3.88750533E-07  4.18906989E-07  4.68455185E-06  0.00000000E+00
  0.00000000E+00  8.43862837E-06 -1.06682998E-06  0.00000000E+00 -4.09388663E-08
 -5.38052738E-07  0.00000000E+00  0.00000000E+00 -1.19329301E-07 -8.18619550E-07
  0.00000000E+00  6.76014900E-08  1.24778755E-06  0.00000000E+00  0.00000000E+00
  1.96148049E-07  1.76365454E-06  4.15319735E-06  2.14371583E-05 -2.04515667E-06
  8.26651239E-05  1.36428236E-04 -1.14103451E-06  1.49828635E-06  0.00000000E+00
  7.72300841E-06 -1.19411641E-05  0.00000000E+00 -4.12277391E-05  5.03161007E-05
  0.00000000E+00 -9.10129407E-06 -3.45916610E-05  0.00000000E+00 -2.63198654E-07
  0.00000000E+00  0.00000000E+00 -6.90088434E-07 -7.91636416E-07  1.50947257E-06
  0.00000000E+00  0.00000000E+00  5.06320371E-07  3.19909092E-06  1.56807846E-05
  0.00000000E+00  0.00000000E+00  3.27045738E-05  1.91820367E-05  0.00000000E+00
 -8.82358251E-07  6.32979463E-07  0.00000000E+00  0.00000000E+00 -5.76068943E-07
 -6.90996064E-07  0.00000000E+00  3.25117570E-06 -3.69757431E-06  0.00000000E+00
  0.00000000E+00  5.55161282E-06  1.88989401E-06  5.37063649E-06  6.95205576E-05
 -2.76245427E-04 -1.63469908E-05 -1.16879554E-06 -1.64109140E-06  0.00000000E+00
  2.18141751E-05 -9.62269183E-06  0.00000000E+00  6.40209482E-05 -1.17931104E-04
  0.00000000E+00 -1.03062411E-06  0.00000000E+00  0.00000000E+00 -2.92024782E-07
  3.41055702E-07  4.38500812E-05  0.00000000E+00  0.00000000E+00  6.67620426E-05
  2.88840021E-05  1.08244225E-06 -8.37291932E-06  4.88432343E-05  1.62015997E-05
  4.66335606E-07 -1.31749390E-07  0.00000000E+00  7.55791901E-06 -6.08038416E-06
  0.00000000E+00  2.44235537E-05 -1.54851435E-05  0.00000000E+00  2.25060021E-07
  0.00000000E+00  0.00000000E+00  1.02041028E-06 -3.76690859E-07 -3.77153132E-06
  0.00000000E+00  0.00000000E+00  8.07041170E-06 -1.70312886E-06  2.19609931E-06
 -6.72451373E-06  4.78843383E-06  2.38037006E-06 -1.44975529E-05  3.32719887E-05
 -2.80581466E-05  9.44791813E-01  3.17846117E-01  0.00000000E+00  8.08271711E-03
  2.72577264E-03  0.00000000E+00  2.44140558E-04  1.17690952E-04  0.00000000E+00
 -4.44915558E-04 -1.65971135E-04  0.00000000E+00 -1.12982332E-04 -3.35497391E-05
  0.00000000E+00  3.17145799E-05 -2.62731910E-06  0.00000000E+00 -7.94648423E-07
  0.00000000E+00  0.00000000E+00 -1.51559674E-06  2.38489145E-06  4.79753018E-06
  0.00000000E+00  0.00000000E+00  6.98531260E-06 -5.14778973E-06 -1.87984933E-05
  0.00000000E+00  0.00000000E+00 -2.87354268E-05  1.51273331E-05  5.01140981E-06
  0.00000000E+00  0.00000000E+00  4.91561771E-06 -1.20283542E-05  0.00000000E+00
 -1.97250110E-07 -3.08830192E-07  0.00000000E+00  0.00000000E+00 -8.11214269E-07
 -5.52291378E-07  0.00000000E+00 -1.23618695E-06 -8.04439981E-06  0.00000000E+00
  0.00000000E+00 -4.49854197E-06 -8.93717550E-06  6.41606922E-06  3.19879885E-05
 -5.96313209E-06  2.59304691E-04  2.64282145E-04 -1.26689015E-07  1.51552154E-06
  0.00000000E+00 -5.44735874E-06 -1.00670521E-05  0.00000000E+00 -4.40891805E-05
  4.64318521E-05  0.00000000E+00 -1.24195886E-05 -5.96284556E-05  0.00000000E+00
  2.37466570E-07  0.00000000E+00  0.00000000E+00 -1.91385389E-06  1.57449126E-06
 -5.58528239E-06  0.00000000E+00  0.00000000E+00  1.68339320E-05 -1.04141742E-05
 -2.49809954E-06  0.00000000E+00  0.00000000E+00  7.52220743E-05  6.42891772E-07
  0.00000000E+00 -9.44494616E-08 -1.48530473E-06  0.00000000E+00  0.00000000E+00
 -1.10530368E-06  5.50289015E-07  0.00000000E+00  3.86250378E-06  4.49025913E-06
  0.00000000E+00  0.00000000E+00 -6.75876242E-06 -3.69313072E-06  8.59062842E-06
  7.57910949E-05 -4.06066354E-04  2.15879911E-05  8.78483553E-07 -7.51871177E-06
  0.00000000E+00 -2.37885695E-05 -6.83670182E-06  0.00000000E+00  9.46513361E-06
 -1.15351616E-04  0.00000000E+00 -2.14947412E-06  0.00000000E+00  0.00000000E+00
 -2.04168487E-06 -3.11197920E-06  7.96391427E-05  0.00000000E+00  0.00000000E+00
  1.26218397E-04 -3.14314836E-05  2.15579878E-06 -1.51733491E-04 -4.43211249E-05
 -1.27193848E-05 -4.33006650E-06 -1.25418789E-06  0.00000000E+00 -4.01358055E-05
  1.31456868E-05  0.00000000E+00  3.95146696E-06 -1.07044185E-05  0.00000000E+00
  4.57856579E-06  0.00000000E+00  0.00000000E+00 -1.27171488E-06 -4.99587497E-07
 -8.85868442E-06  0.00000000E+00  0.00000000E+00 -2.39205511E-06  7.87481131E-06
  9.36723009E-06 -3.18767753E-05  5.44549137E-06 -8.81832878E-06 -2.96402718E-05
  1.17617718E-04 -6.93327836E-05 -3.17847239E-01  9.44789745E-01  0.00000000E+00
 -2.71776248E-03  8.09765301E-03  0.00000000E+00 -7.45886521E-05  3.24237963E-04
  0.00000000E+00  1.46425042E-04 -4.82179392E-04  0.00000000E+00  3.30866074E-05
 -8.46302838E-05  0.00000000E+00 -9.81270198E-06  3.52710834E-06  0.00000000E+00
 -2.22118635E-06  0.00000000E+00  0.00000000E+00 -3.73727505E-06 -9.21448924E-07
  1.03757316E-05  0.00000000E+00  0.00000000E+00  1.77445293E-05  2.37187638E-07