 Entering Gaussian System, Link 0=g09
 Input=CH2DT_freq.gjf
 Output=CH2DT_freq.log
 Initial command:
 /usr/local/gaussian/g09/l1.exe "/scratch/Gau-31404.inp" -scrdir="/scratch/"
 Entering Link 1 = /usr/local/gaussian/g09/l1.exe PID=     31405.
  
 Copyright (c) 1988,1990,1992,1993,1995,1998,2003,2009,2015,
            Gaussian, Inc.  All Rights Reserved.
  
 This is part of the Gaussian(R) 09 program.  It is based on
 the Gaussian(R) 03 system (copyright 2003, Gaussian, Inc.),
 the Gaussian(R) 98 system (copyright 1998, Gaussian, Inc.),
 the Gaussian(R) 94 system (copyright 1995, Gaussian, Inc.),
 the Gaussian 92(TM) system (copyright 1992, Gaussian, Inc.),
 the Gaussian 90(TM) system (copyright 1990, Gaussian, Inc.),
 the Gaussian 88(TM) system (copyright 1988, Gaussian, Inc.),
 the Gaussian 86(TM) system (copyright 1986, Carnegie Mellon
 University), and the Gaussian 82(TM) system (copyright 1983,
 Carnegie Mellon University). Gaussian is a federally registered
 trademark of Gaussian, Inc.
  
 This software contains proprietary and confidential information,
 including trade secrets, belonging to Gaussian, Inc.
  
 This software is provided under written license and may be
 used, copied, transmitted, or stored only in accord with that
 written license.
  
 The following legend is applicable only to US Government
 contracts under FAR:
  
                    RESTRICTED RIGHTS LEGEND
  
 Use, reproduction and disclosure by the US Government is
 subject to restrictions as set forth in subparagraphs (a)
 and (c) of the Commercial Computer Software - Restricted
 Rights clause in FAR 52.227-19.
  
 Gaussian, Inc.
 340 Quinnipiac St., Bldg. 40, Wallingford CT 06492
  
  
 ---------------------------------------------------------------
 Warning -- This program may not be used in any manner that
 competes with the business of Gaussian, Inc. or will provide
 assistance to any competitor of Gaussian, Inc.  The licensee
 of this program is prohibited from giving any competitor of
 Gaussian, Inc. access to this program.  By using this program,
 the user acknowledges that Gaussian, Inc. is engaged in the
 business of creating and licensing software in the field of
 computational chemistry and represents and warrants to the
 licensee that it is not a competitor of Gaussian, Inc. and that
 it will not use this program in any manner prohibited above.
 ---------------------------------------------------------------
  

 Cite this work as:
 Gaussian 09, Revision E.01,
 M. J. Frisch, G. W. Trucks, H. B. Schlegel, G. E. Scuseria, 
 M. A. Robb, J. R. Cheeseman, G. Scalmani, V. Barone, B. Mennucci, 
 G. A. Petersson, H. Nakatsuji, M. Caricato, X. Li, H. P. Hratchian, 
 A. F. Izmaylov, J. Bloino, G. Zheng, J. L. Sonnenberg, M. Hada, 
 M. Ehara, K. Toyota, R. Fukuda, J. Hasegawa, M. Ishida, T. Nakajima, 
 Y. Honda, O. Kitao, H. Nakai, T. Vreven, J. A. Montgomery, Jr., 
 J. E. Peralta, F. Ogliaro, M. Bearpark, J. J. Heyd, E. Brothers, 
 K. N. Kudin, V. N. Staroverov, T. Keith, R. Kobayashi, J. Normand, 
 K. Raghavachari, A. Rendell, J. C. Burant, S. S. Iyengar, J. Tomasi, 
 M. Cossi, N. Rega, J. M. Millam, M. Klene, J. E. Knox, J. B. Cross, 
 V. Bakken, C. Adamo, J. Jaramillo, R. Gomperts, R. E. Stratmann, 
 O. Yazyev, A. J. Austin, R. Cammi, C. Pomelli, J. W. Ochterski, 
 R. L. Martin, K. Morokuma, V. G. Zakrzewski, G. A. Voth, 
 P. Salvador, J. J. Dannenberg, S. Dapprich, A. D. Daniels, 
 O. Farkas, J. B. Foresman, J. V. Ortiz, J. Cioslowski, 
 and D. J. Fox, Gaussian, Inc., Wallingford CT, 2013.
 
 ******************************************
 Gaussian 09:  ES64L-G09RevE.01 30-Nov-2015
                11-Oct-2020 
 ******************************************
 %Chk=CH2DT_freq.chk
 %NProc=8
 Will use up to    8 processors via shared memory.
 %Mem=1000MB
 ----------------------------------------------------------------------
 #MP2/aug-cc-pvdz #Density=current #Opt=VeryTight #Frequency=Anharmonic
 ----------------------------------------------------------------------
 1/7=1,18=20,19=15,38=1,80=1/1,3;
 2/9=110,12=2,17=6,18=5,40=1/2;
 3/5=16,7=10,11=9,16=1,25=1,30=1,71=1/1,2,3;
 4//1;
 5/5=2,38=5/2;
 8/6=4,10=1/1;
 9/15=2,16=-3/6;
 10/5=1/2;
 6/7=2,8=2,9=2,10=2,22=-1/1;
 7/12=2/1,2,3,16;
 1/7=1,18=20,19=15,80=1/3(2);
 2/9=110/2;
 99/8=1000/99;
 2/9=110/2;
 3/5=16,7=10,11=9,16=1,25=1,30=1,71=1/1,2,3;
 4/5=5,16=3,69=1/1;
 5/5=2,38=5/2;
 8/6=4,10=1/1;
 9/15=2,16=-3/6;
 10/5=1/2;
 7/12=2/1,2,3,16;
 1/7=1,18=20,19=15,80=1/3(-8);
 2/9=110/2;
 6/7=2,8=2,9=2,10=2,22=-1/1;
 99/8=1000/99;
 ---------------------------------
 Deuterated/tritiated methane freq
 ---------------------------------
 Symbolic Z-matrix:
 Charge =  0 Multiplicity = 1
 C
 H                    1    R
 H                    1    R        2    A
 H(Iso=2)             1    R        3    A        2    D        0
 H(Iso=3)             1    R        3    A        2    D2       0
       Variables:
  R                     1.1                      
  A                   109.5                      
  D                   120.                       
  D2                 -120.                       
 

 GradGradGradGradGradGradGradGradGradGradGradGradGradGradGradGradGradGrad
 Berny optimization.
 Initialization pass.
                           ----------------------------
                           !    Initial Parameters    !
                           ! (Angstroms and Degrees)  !
 --------------------------                            --------------------------
 ! Name  Definition              Value          Derivative Info.                !
 --------------------------------------------------------------------------------
 ! R1    R(1,2)                  1.1            estimate D2E/DX2                !
 ! R2    R(1,3)                  1.1            estimate D2E/DX2                !
 ! R3    R(1,4)                  1.1            estimate D2E/DX2                !
 ! R4    R(1,5)                  1.1            estimate D2E/DX2                !
 ! A1    A(2,1,3)              109.5            estimate D2E/DX2                !
 ! A2    A(2,1,4)              109.4424         estimate D2E/DX2                !
 ! A3    A(2,1,5)              109.4424         estimate D2E/DX2                !
 ! A4    A(3,1,4)              109.5            estimate D2E/DX2                !
 ! A5    A(3,1,5)              109.5            estimate D2E/DX2                !
 ! A6    A(4,1,5)              109.4424         estimate D2E/DX2                !
 ! D1    D(2,1,4,3)            120.0352         estimate D2E/DX2                !
 ! D2    D(2,1,5,3)           -120.0352         estimate D2E/DX2                !
 ! D3    D(2,1,5,4)            119.9295         estimate D2E/DX2                !
 ! D4    D(3,1,5,4)           -120.0352         estimate D2E/DX2                !
 --------------------------------------------------------------------------------
 Trust Radius=3.00D-01 FncErr=1.00D-07 GrdErr=1.00D-07
 Number of steps in this run=     24 maximum allowed number of steps=    100.
 GradGradGradGradGradGradGradGradGradGradGradGradGradGradGradGradGradGrad

                          Input orientation:                          
 ---------------------------------------------------------------------
 Center     Atomic      Atomic             Coordinates (Angstroms)
 Number     Number       Type             X           Y           Z
 ---------------------------------------------------------------------
      1          6           0        0.000000    0.000000    0.000000
      2          1           0        0.000000    0.000000    1.100000
      3          1           0        1.036906    0.000000   -0.367188
      4          1           0       -0.519189    0.897987   -0.366145
      5          1           0       -0.519189   -0.897987   -0.366145
 ---------------------------------------------------------------------
                    Distance matrix (angstroms):
                    1          2          3          4          5
     1  C    0.000000
     2  H    1.100000   0.000000
     3  H    1.100000   1.796611   0.000000
     4  H    1.100000   1.795973   1.796611   0.000000
     5  H    1.100000   1.795973   1.796611   1.795973   0.000000
 Stoichiometry    CH4
 Framework group  C3V[C3(CH),3SGV(H)]
 Deg. of freedom     3
 Full point group                 C3V     NOp   6
 Largest Abelian subgroup         CS      NOp   2
 Largest concise Abelian subgroup CS      NOp   2
                         Standard orientation:                         
 ---------------------------------------------------------------------
 Center     Atomic      Atomic             Coordinates (Angstroms)
 Number     Number       Type             X           Y           Z
 ---------------------------------------------------------------------
      1          6           0        0.000000    0.000000    0.000156
      2          1           0        0.000000    1.036906   -0.367031
      3          1           0        0.000000    0.000000    1.100156
      4          1           0        0.897987   -0.518453   -0.367031
      5          1           0       -0.897987   -0.518453   -0.367031
 ---------------------------------------------------------------------
 Rotational constants (GHZ):    122.5513164     87.2415050     75.8414938
 Standard basis: Aug-CC-pVDZ (5D, 7F)
 There are    41 symmetry adapted cartesian basis functions of A'  symmetry.
 There are    20 symmetry adapted cartesian basis functions of A"  symmetry.
 There are    39 symmetry adapted basis functions of A'  symmetry.
 There are    20 symmetry adapted basis functions of A"  symmetry.
    59 basis functions,    87 primitive gaussians,    61 cartesian basis functions
     5 alpha electrons        5 beta electrons
       nuclear repulsion energy        13.3132494888 Hartrees.
 NAtoms=    5 NActive=    5 NUniq=    3 SFac= 2.78D+00 NAtFMM=   60 NAOKFM=F Big=F
 Integral buffers will be    131072 words long.
 Raffenetti 1 integral format.
 Two-electron integral symmetry is turned on.
 One-electron integrals computed using PRISM.
 NBasis=    59 RedAO= T EigKep=  6.39D-04  NBF=    39    20
 NBsUse=    59 1.00D-06 EigRej= -1.00D+00 NBFU=    39    20
 ExpMin= 2.97D-02 ExpMax= 6.67D+03 ExpMxC= 2.28D+02 IAcc=3 IRadAn=         5 AccDes= 0.00D+00
 Harris functional with IExCor=  205 and IRadAn=       5 diagonalized for initial guess.
 HarFok:  IExCor=  205 AccDes= 0.00D+00 IRadAn=         5 IDoV= 1 UseB2=F ITyADJ=14
 ICtDFT=  3500011 ScaDFX=  1.000000  1.000000  1.000000  1.000000
 FoFCou: FMM=F IPFlag=           0 FMFlag=      100000 FMFlg1=           0
         NFxFlg=           0 DoJE=T BraDBF=F KetDBF=T FulRan=T
         wScrn=  0.000000 ICntrl=     500 IOpCl=  0 I1Cent=   200000004 NGrid=           0
         NMat0=    1 NMatS0=      1 NMatT0=    0 NMatD0=    1 NMtDS0=    0 NMtDT0=    0
 Petite list used in FoFCou.
 Initial guess orbital symmetries:
       Occupied  (A1) (A1) (A1) (E) (E)
       Virtual   (A1) (A1) (E) (E) (E) (E) (A1) (A1) (A1) (E) (E)
                 (E) (E) (A1) (E) (E) (A1) (E) (E) (A2) (A1) (E)
                 (E) (A1) (E) (E) (A1) (E) (E) (E) (E) (A1) (A1)
                 (E) (E) (A1) (E) (E) (E) (E) (A2) (A1) (A1) (E)
                 (E) (E) (E) (A1) (E) (E) (A1) (E) (E) (A1)
 The electronic state of the initial guess is 1-A1.
 Keep R1 ints in memory in symmetry-blocked form, NReq=2451333.
 Requested convergence on RMS density matrix=1.00D-08 within 128 cycles.
 Requested convergence on MAX density matrix=1.00D-06.
 Requested convergence on             energy=1.00D-06.
 No special actions if energy rises.
 SCF Done:  E(RHF) =  -40.1993341257     A.U. after    8 cycles
            NFock=  8  Conv=0.64D-08     -V/T= 2.0035
 ExpMin= 2.97D-02 ExpMax= 6.67D+03 ExpMxC= 2.28D+02 IAcc=3 IRadAn=         5 AccDes= 0.00D+00
 HarFok:  IExCor=  205 AccDes= 0.00D+00 IRadAn=         5 IDoV=-2 UseB2=F ITyADJ=14
 ICtDFT= 12500011 ScaDFX=  1.000000  1.000000  1.000000  1.000000
 Range of M.O.s used for correlation:     2    59
 NBasis=    59 NAE=     5 NBE=     5 NFC=     1 NFV=     0
 NROrb=     58 NOA=     4 NOB=     4 NVA=    54 NVB=    54

 **** Warning!!: The largest alpha MO coefficient is  0.18820767D+02

 Fully direct method using O(ONN) memory.
 JobTyp=1 Pass  1:  I=   2 to   5 NPSUse=  8 ParTrn=T ParDer=T DoDerP=T.
 Spin components of T(2) and E(2):
     alpha-alpha T2 =       0.5846112235D-02 E2=     -0.1593391461D-01
     alpha-beta  T2 =       0.4624097959D-01 E2=     -0.1365158963D+00
     beta-beta   T2 =       0.5846112235D-02 E2=     -0.1593391461D-01
 ANorm=    0.1028558800D+01
 E2 =    -0.1683837255D+00 EUMP2 =    -0.40367717851216D+02
          IDoAtm=11111
          Differentiating once with respect to electric field.
                with respect to dipole field.
          Differentiating once with respect to nuclear coordinates.
 Keep R1 ints in memory in symmetry-blocked form, NReq=2431790.
          There are     1 degrees of freedom in the 1st order CPHF.  IDoFFX=0 NUNeed=     1.
 LinEq1:  Iter=  0 NonCon=     1 RMS=3.81D-03 Max=1.52D-02 NDo=     1
 AX will form     1 AO Fock derivatives at one time.
 LinEq1:  Iter=  1 NonCon=     1 RMS=8.65D-04 Max=3.80D-03 NDo=     1
 LinEq1:  Iter=  2 NonCon=     1 RMS=2.33D-04 Max=1.68D-03 NDo=     1
 LinEq1:  Iter=  3 NonCon=     1 RMS=1.58D-05 Max=1.10D-04 NDo=     1
 LinEq1:  Iter=  4 NonCon=     1 RMS=8.34D-07 Max=6.59D-06 NDo=     1
 LinEq1:  Iter=  5 NonCon=     1 RMS=4.56D-08 Max=2.71D-07 NDo=     1
 LinEq1:  Iter=  6 NonCon=     1 RMS=3.21D-09 Max=2.02D-08 NDo=     1
 LinEq1:  Iter=  7 NonCon=     1 RMS=2.33D-10 Max=1.36D-09 NDo=     1
 LinEq1:  Iter=  8 NonCon=     0 RMS=2.41D-11 Max=9.73D-11 NDo=     1
 Linear equations converged to 1.000D-10 1.000D-09 after     8 iterations.
 End of Minotr F.D. properties file   721 does not exist.
 End of Minotr F.D. properties file   722 does not exist.
 End of Minotr F.D. properties file   788 does not exist.

 **********************************************************************

            Population analysis using the MP2 density.

 **********************************************************************

 Orbital symmetries:
       Occupied  (A1) (A1) (A1) (E) (E)
       Virtual   (A1) (A1) (E) (E) (E) (E) (A1) (A1) (A1) (E) (E)
                 (E) (E) (A1) (E) (E) (A1) (E) (E) (A2) (A1) (E)
                 (E) (A1) (A1) (E) (E) (E) (E) (E) (E) (A1) (A1)
                 (E) (E) (A1) (E) (E) (E) (E) (A2) (A1) (A1) (E)
                 (E) (E) (E) (A1) (E) (E) (A1) (E) (E) (A1)
 The electronic state is 1-A1.
 Alpha  occ. eigenvalues --  -11.22054  -0.93917  -0.54128  -0.54111  -0.54111
 Alpha virt. eigenvalues --    0.03691   0.06378   0.06380   0.06380   0.14597
 Alpha virt. eigenvalues --    0.14597   0.14600   0.17408   0.29848   0.29849
 Alpha virt. eigenvalues --    0.29849   0.30582   0.30582   0.41488   0.44026
 Alpha virt. eigenvalues --    0.44026   0.44030   0.52108   0.52108   0.52113
 Alpha virt. eigenvalues --    0.56699   0.60603   0.60603   0.60615   0.66641
 Alpha virt. eigenvalues --    0.66651   0.66651   0.73296   0.73296   0.98239
 Alpha virt. eigenvalues --    0.98239   0.98269   1.11413   1.34669   1.34669
 Alpha virt. eigenvalues --    1.34681   1.73951   1.73951   1.88405   1.88405
 Alpha virt. eigenvalues --    1.88429   1.98574   2.19574   2.19616   2.19616
 Alpha virt. eigenvalues --    2.27989   2.27989   2.28056   2.61754   2.61754
 Alpha virt. eigenvalues --    2.80008   2.90579   2.90579   2.90589
          Condensed to atoms (all electrons):
               1          2          3          4          5
     1  C    4.134927   0.321989   0.321998   0.321989   0.321989
     2  H    0.321989   1.164511  -0.114144  -0.114002  -0.114002
     3  H    0.321998  -0.114144   1.164490  -0.114144  -0.114144
     4  H    0.321989  -0.114002  -0.114144   1.164511  -0.114002
     5  H    0.321989  -0.114002  -0.114144  -0.114002   1.164511
 Mulliken charges:
               1
     1  C    0.577108
     2  H   -0.144351
     3  H   -0.144055
     4  H   -0.144351
     5  H   -0.144351
 Sum of Mulliken charges =   0.00000
 Mulliken charges with hydrogens summed into heavy atoms:
               1
     1  C    0.000000
 Electronic spatial extent (au):  <R**2>=             36.4574
 Charge=              0.0000 electrons
 Dipole moment (field-independent basis, Debye):
    X=              0.0000    Y=             -0.0000    Z=             -0.0004  Tot=              0.0004
 Quadrupole moment (field-independent basis, Debye-Ang):
   XX=             -8.5973   YY=             -8.5973   ZZ=             -8.5943
   XY=             -0.0000   XZ=             -0.0000   YZ=              0.0000
 Traceless Quadrupole moment (field-independent basis, Debye-Ang):
   XX=             -0.0010   YY=             -0.0010   ZZ=              0.0020
   XY=             -0.0000   XZ=             -0.0000   YZ=              0.0000
 Octapole moment (field-independent basis, Debye-Ang**2):
  XXX=             -0.0000  YYY=              0.6316  ZZZ=              0.8944  XYY=              0.0000
  XXY=             -0.6316  XXZ=             -0.4476  XZZ=              0.0000  YZZ=             -0.0000
  YYZ=             -0.4476  XYZ=              0.0000
 Hexadecapole moment (field-independent basis, Debye-Ang**3):
 XXXX=            -16.8390 YYYY=            -16.8390 ZZZZ=            -16.5644 XXXY=              0.0000
 XXXZ=              0.0000 YYYX=              0.0000 YYYZ=             -0.3890 ZZZX=             -0.0000
 ZZZY=              0.0000 XXYY=             -5.6130 XXZZ=             -5.8874 YYZZ=             -5.8874
 XXYZ=              0.3890 YYXZ=             -0.0000 ZZXY=              0.0000
 N-N= 1.331324948876D+01 E-N=-1.195516841086D+02  KE= 4.018813965252D+01
 Symmetry A'   KE= 3.828492206100D+01
 Symmetry A"   KE= 1.903217591518D+00
 Calling FoFJK, ICntrl=  10002127 FMM=F ISym2X=1 I1Cent= 0 IOpClX= 0 NMat=1 NMatS=1 NMatT=0.
 ***** Axes restored to original set *****
 -------------------------------------------------------------------
 Center     Atomic                   Forces (Hartrees/Bohr)
 Number     Number              X              Y              Z
 -------------------------------------------------------------------
      1        6          -0.000122696   -0.000000000    0.000043449
      2        1           0.000058133    0.000000000   -0.001224611
      3        1          -0.001188280    0.000000000    0.000420792
      4        1           0.000626421   -0.000982907    0.000380185
      5        1           0.000626421    0.000982907    0.000380185
 -------------------------------------------------------------------
 Cartesian Forces:  Max     0.001224611 RMS     0.000638497

 GradGradGradGradGradGradGradGradGradGradGradGradGradGradGradGradGradGrad
 Berny optimization.
 FormGI is forming the generalized inverse of G from B-inverse, IUseBI=4.
 Internal  Forces:  Max     0.001260585 RMS     0.000659933
 Search for a local minimum.
 Step number   1 out of a maximum of   24
 All quantities printed in internal units (Hartrees-Bohrs-Radians)
 Mixed Optimization -- En-DIIS/RFO-DIIS
 Second derivative matrix not updated -- first step.
 The second derivative matrix:
                          R1        R2        R3        R4        A1
           R1           0.33682
           R2           0.00000   0.33682
           R3           0.00000   0.00000   0.33682
           R4           0.00000   0.00000   0.00000   0.33682
           A1           0.00000   0.00000   0.00000   0.00000   0.16000
           A2           0.00000   0.00000   0.00000   0.00000   0.00000
           A3           0.00000   0.00000   0.00000   0.00000   0.00000
           A4           0.00000   0.00000   0.00000   0.00000   0.00000
           A5           0.00000   0.00000   0.00000   0.00000   0.00000
           A6           0.00000   0.00000   0.00000   0.00000   0.00000
           D1           0.00000   0.00000   0.00000   0.00000   0.00000
           D2           0.00000   0.00000   0.00000   0.00000   0.00000
           D3           0.00000   0.00000   0.00000   0.00000   0.00000
           D4           0.00000   0.00000   0.00000   0.00000   0.00000
                          A2        A3        A4        A5        A6
           A2           0.16000
           A3           0.00000   0.16000
           A4           0.00000   0.00000   0.16000
           A5           0.00000   0.00000   0.00000   0.16000
           A6           0.00000   0.00000   0.00000   0.00000   0.16000
           D1           0.00000   0.00000   0.00000   0.00000   0.00000
           D2           0.00000   0.00000   0.00000   0.00000   0.00000
           D3           0.00000   0.00000   0.00000   0.00000   0.00000
           D4           0.00000   0.00000   0.00000   0.00000   0.00000
                          D1        D2        D3        D4
           D1           0.00230
           D2           0.00000   0.00230
           D3           0.00000   0.00000   0.00230
           D4           0.00000   0.00000   0.00000   0.00230
 ITU=  0
     Eigenvalues ---    0.05083   0.05719   0.08635   0.16000   0.16000
     Eigenvalues ---    0.33682   0.33682   0.33682   0.33682
 RFO step:  Lambda=-1.82085663D-05 EMin= 5.08335310D-02
 Linear search not attempted -- first point.
 Iteration  1 RMS(Cart)=  0.00197408 RMS(Int)=  0.00000076
 Iteration  2 RMS(Cart)=  0.00000048 RMS(Int)=  0.00000011
 ClnCor:  largest displacement from symmetrization is 8.35D-06 for atom     5.
 Variable       Old X    -DE/DX   Delta X   Delta X   Delta X     New X
                                 (Linear)    (Quad)   (Total)
    R1        2.07870  -0.00122   0.00000  -0.00364  -0.00364   2.07506
    R2        2.07870  -0.00126   0.00000  -0.00374  -0.00374   2.07496
    R3        2.07870  -0.00122   0.00000  -0.00364  -0.00364   2.07506
    R4        2.07870  -0.00122   0.00000  -0.00364  -0.00364   2.07506
    A1        1.91114  -0.00001   0.00000  -0.00036  -0.00037   1.91077
    A2        1.91013   0.00001   0.00000   0.00036   0.00037   1.91050
    A3        1.91013   0.00003   0.00000   0.00037   0.00037   1.91050
    A4        1.91114  -0.00002   0.00000  -0.00037  -0.00037   1.91077
    A5        1.91114  -0.00004   0.00000  -0.00037  -0.00037   1.91077
    A6        1.91013   0.00004   0.00000   0.00037   0.00037   1.91050
    D1        2.09501  -0.00003   0.00000  -0.00045  -0.00045   2.09456
    D2       -2.09501   0.00002   0.00000   0.00045   0.00045  -2.09456
    D3        2.09317   0.00005   0.00000   0.00090   0.00090   2.09406
    D4       -2.09501   0.00003   0.00000   0.00045   0.00045  -2.09456
         Item               Value     Threshold  Converged?
 Maximum Force            0.001261     0.000002     NO 
 RMS     Force            0.000660     0.000001     NO 
 Maximum Displacement     0.003916     0.000006     NO 
 RMS     Displacement     0.001974     0.000004     NO 
 Predicted change in Energy=-9.104314D-06
 GradGradGradGradGradGradGradGradGradGradGradGradGradGradGradGradGradGrad

                          Input orientation:                          
 ---------------------------------------------------------------------
 Center     Atomic      Atomic             Coordinates (Angstroms)
 Number     Number       Type             X           Y           Z
 ---------------------------------------------------------------------
      1          6           0       -0.000205    0.000000    0.000073
      2          1           0        0.000197    0.000000    1.098149
      3          1           0        1.034834   -0.000000   -0.366454
      4          1           0       -0.518152    0.896532   -0.365622
      5          1           0       -0.518152   -0.896532   -0.365622
 ---------------------------------------------------------------------
                    Distance matrix (angstroms):
                    1          2          3          4          5
     1  C    0.000000
     2  H    1.098076   0.000000
     3  H    1.098020   1.793191   0.000000
     4  H    1.098076   1.793065   1.793191   0.000000
     5  H    1.098076   1.793065   1.793191   1.793065   0.000000
 Stoichiometry    CH4
 Framework group  C3V[C3(CH),3SGV(H)]
 Deg. of freedom     3
 Full point group                 C3V     NOp   6
 Largest Abelian subgroup         CS      NOp   2
 Largest concise Abelian subgroup CS      NOp   2
                         Standard orientation:                         
 ---------------------------------------------------------------------
 Center     Atomic      Atomic             Coordinates (Angstroms)
 Number     Number       Type             X           Y           Z
 ---------------------------------------------------------------------
      1          6           0        0.000000    0.000000    0.000048
      2          1           0       -0.000000    1.035226   -0.366118
      3          1           0        0.000000    0.000000    1.098068
      4          1           0        0.896532   -0.517613   -0.366118
      5          1           0       -0.896532   -0.517613   -0.366118
 ---------------------------------------------------------------------
 Rotational constants (GHZ):    123.0048123     87.5416576     76.1006713
 Standard basis: Aug-CC-pVDZ (5D, 7F)
 There are    41 symmetry adapted cartesian basis functions of A'  symmetry.
 There are    20 symmetry adapted cartesian basis functions of A"  symmetry.
 There are    39 symmetry adapted basis functions of A'  symmetry.
 There are    20 symmetry adapted basis functions of A"  symmetry.
    59 basis functions,    87 primitive gaussians,    61 cartesian basis functions
     5 alpha electrons        5 beta electrons
       nuclear repulsion energy        13.3367438851 Hartrees.
 NAtoms=    5 NActive=    5 NUniq=    3 SFac= 2.78D+00 NAtFMM=   60 NAOKFM=F Big=F
 Integral buffers will be    131072 words long.
 Raffenetti 1 integral format.
 Two-electron integral symmetry is turned on.
 One-electron integrals computed using PRISM.
 NBasis=    59 RedAO= T EigKep=  6.35D-04  NBF=    39    20
 NBsUse=    59 1.00D-06 EigRej= -1.00D+00 NBFU=    39    20
 Initial guess from the checkpoint file:  "CH2DT_freq.chk"
 B after Tr=     0.000000   -0.000000    0.000000
         Rot=    1.000000   -0.000000    0.000000   -0.000000 Ang=   0.00 deg.
 Initial guess orbital symmetries:
       Occupied  (A1) (A1) (A1) (E) (E)
       Virtual   (?A) (?A) (?A) (?A) (?A) (?A) (?A) (?A) (?A) (?A)
                 (?A) (?A) (?A) (?A) (?A) (?A) (?A) (?A) (?A) (?A)
                 (?A) (?A) (?A) (?A) (?A) (?A) (?A) (?A) (?A) (?A)
                 (?A) (?A) (?A) (?A) (?A) (?A) (?A) (?A) (?A) (?A)
                 (?A) (?A) (?A) (?A) (?A) (?A) (?A) (?A) (?A) (?A)
                 (?A) (?A) (?A) (?A)
 Keep R1 ints in memory in symmetry-blocked form, NReq=2451333.
 Requested convergence on RMS density matrix=1.00D-08 within 128 cycles.
 Requested convergence on MAX density matrix=1.00D-06.
 Requested convergence on             energy=1.00D-06.
 No special actions if energy rises.
 SCF Done:  E(RHF) =  -40.1994327548     A.U. after    6 cycles
            NFock=  6  Conv=0.96D-08     -V/T= 2.0032
 ExpMin= 2.97D-02 ExpMax= 6.67D+03 ExpMxC= 2.28D+02 IAcc=3 IRadAn=         5 AccDes= 0.00D+00
 HarFok:  IExCor=  205 AccDes= 0.00D+00 IRadAn=         5 IDoV=-2 UseB2=F ITyADJ=14
 ICtDFT= 12500011 ScaDFX=  1.000000  1.000000  1.000000  1.000000
 Range of M.O.s used for correlation:     2    59
 NBasis=    59 NAE=     5 NBE=     5 NFC=     1 NFV=     0
 NROrb=     58 NOA=     4 NOB=     4 NVA=    54 NVB=    54

 **** Warning!!: The largest alpha MO coefficient is  0.18869321D+02

 Fully direct method using O(ONN) memory.
 JobTyp=1 Pass  1:  I=   2 to   5 NPSUse=  8 ParTrn=T ParDer=T DoDerP=T.
 Spin components of T(2) and E(2):
     alpha-alpha T2 =       0.5837461919D-02 E2=     -0.1593370569D-01
     alpha-beta  T2 =       0.4613204542D-01 E2=     -0.1364263045D+00
     beta-beta   T2 =       0.5837461919D-02 E2=     -0.1593370569D-01
 ANorm=    0.1028497433D+01
 E2 =    -0.1682937159D+00 EUMP2 =    -0.40367726470624D+02
          IDoAtm=11111
          Differentiating once with respect to electric field.
                with respect to dipole field.
          Differentiating once with respect to nuclear coordinates.
 Keep R1 ints in memory in symmetry-blocked form, NReq=2431790.
          There are     1 degrees of freedom in the 1st order CPHF.  IDoFFX=0 NUNeed=     1.
 LinEq1:  Iter=  0 NonCon=     1 RMS=3.80D-03 Max=1.53D-02 NDo=     1
 AX will form     1 AO Fock derivatives at one time.
 LinEq1:  Iter=  1 NonCon=     1 RMS=8.56D-04 Max=3.75D-03 NDo=     1
 LinEq1:  Iter=  2 NonCon=     1 RMS=2.32D-04 Max=1.68D-03 NDo=     1
 LinEq1:  Iter=  3 NonCon=     1 RMS=1.57D-05 Max=1.09D-04 NDo=     1
 LinEq1:  Iter=  4 NonCon=     1 RMS=8.30D-07 Max=6.53D-06 NDo=     1
 LinEq1:  Iter=  5 NonCon=     1 RMS=4.53D-08 Max=2.69D-07 NDo=     1
 LinEq1:  Iter=  6 NonCon=     1 RMS=3.15D-09 Max=2.00D-08 NDo=     1
 LinEq1:  Iter=  7 NonCon=     1 RMS=1.99D-10 Max=1.46D-09 NDo=     1
 LinEq1:  Iter=  8 NonCon=     0 RMS=9.67D-12 Max=4.65D-11 NDo=     1
 Linear equations converged to 1.000D-10 1.000D-09 after     8 iterations.
 End of Minotr F.D. properties file   721 does not exist.
 End of Minotr F.D. properties file   722 does not exist.
 End of Minotr F.D. properties file   788 does not exist.
 Calling FoFJK, ICntrl=  10002127 FMM=F ISym2X=1 I1Cent= 0 IOpClX= 0 NMat=1 NMatS=1 NMatT=0.
 ***** Axes restored to original set *****
 -------------------------------------------------------------------
 Center     Atomic                   Forces (Hartrees/Bohr)
 Number     Number              X              Y              Z
 -------------------------------------------------------------------
      1        6          -0.000066482   -0.000000000    0.000023543
      2        1           0.000014905    0.000000000    0.000063378
      3        1           0.000086578   -0.000000000   -0.000030659
      4        1          -0.000017500    0.000056048   -0.000028131
      5        1          -0.000017500   -0.000056048   -0.000028131
 -------------------------------------------------------------------
 Cartesian Forces:  Max     0.000086578 RMS     0.000041735

 GradGradGradGradGradGradGradGradGradGradGradGradGradGradGradGradGradGrad
 Berny optimization.
 Using GEDIIS/GDIIS optimizer.
 FormGI is forming the generalized inverse of G from B-inverse, IUseBI=4.
 Internal  Forces:  Max     0.000091847 RMS     0.000038804
 Search for a local minimum.
 Step number   2 out of a maximum of   24
 All quantities printed in internal units (Hartrees-Bohrs-Radians)
 Mixed Optimization -- En-DIIS/RFO-DIIS
 Swapping is turned off.
 Update second derivatives using D2CorX and points    1    2
 DE= -8.62D-06 DEPred=-9.10D-06 R= 9.47D-01
 TightC=F SS=  1.41D+00  RLast= 7.47D-03 DXNew= 5.0454D-01 2.2421D-02
 Trust test= 9.47D-01 RLast= 7.47D-03 DXMaxT set to 3.00D-01
 The second derivative matrix:
                          R1        R2        R3        R4        A1
           R1           0.34084
           R2           0.00590   0.34476
           R3           0.00401   0.00590   0.34084
           R4           0.00401   0.00590   0.00401   0.34084
           A1          -0.00327  -0.00336  -0.00327  -0.00327   0.15982
           A2           0.00367   0.00377   0.00367   0.00367   0.00019
           A3           0.00231   0.00234   0.00231   0.00231   0.00018
           A4          -0.00290  -0.00296  -0.00290  -0.00290  -0.00018
           A5          -0.00190  -0.00192  -0.00190  -0.00190  -0.00017
           A6           0.00210   0.00212   0.00210   0.00210   0.00017
           D1           0.00122   0.00128   0.00122   0.00122   0.00001
           D2          -0.00099  -0.00104  -0.00099  -0.00099  -0.00000
           D3          -0.00232  -0.00244  -0.00232  -0.00232  -0.00001
           D4          -0.00133  -0.00139  -0.00133  -0.00133  -0.00001
                          A2        A3        A4        A5        A6
           A2           0.15981
           A3          -0.00018   0.15984
           A4           0.00019   0.00017   0.15982
           A5           0.00018   0.00015  -0.00016   0.15986
           A6          -0.00018  -0.00015   0.00017   0.00015   0.15985
           D1          -0.00000  -0.00002   0.00001   0.00003  -0.00002
           D2           0.00000   0.00002  -0.00001  -0.00002   0.00002
           D3           0.00000   0.00004  -0.00002  -0.00005   0.00005
           D4           0.00000   0.00002  -0.00001  -0.00003   0.00003
                          D1        D2        D3        D4
           D1           0.00232
           D2          -0.00002   0.00231
           D3          -0.00004   0.00003   0.00237
           D4          -0.00002   0.00002   0.00004   0.00232
 ITU=  1  0
     Eigenvalues ---    0.05077   0.05703   0.08639   0.15993   0.16000
     Eigenvalues ---    0.33638   0.33682   0.33682   0.35728
 En-DIIS/RFO-DIIS IScMMF=        0 using points:     2    1
 RFO step:  Lambda=-3.63500336D-08.
 DidBck=F Rises=F RFO-DIIS coefs:    0.94788    0.05212
 Iteration  1 RMS(Cart)=  0.00011602 RMS(Int)=  0.00000001
 Iteration  2 RMS(Cart)=  0.00000000 RMS(Int)=  0.00000000
 ClnCor:  largest displacement from symmetrization is 2.42D-06 for atom     5.
 Variable       Old X    -DE/DX   Delta X   Delta X   Delta X     New X
                                 (Linear)    (Quad)   (Total)
    R1        2.07506   0.00006   0.00019  -0.00001   0.00018   2.07524
    R2        2.07496   0.00009   0.00020   0.00006   0.00026   2.07521
    R3        2.07506   0.00006   0.00019  -0.00001   0.00018   2.07524
    R4        2.07506   0.00006   0.00019  -0.00001   0.00018   2.07524
    A1        1.91077  -0.00000   0.00002  -0.00011  -0.00009   1.91068
    A2        1.91050   0.00000  -0.00002   0.00011   0.00009   1.91059
    A3        1.91050   0.00001  -0.00002   0.00011   0.00009   1.91059
    A4        1.91077  -0.00001   0.00002  -0.00011  -0.00009   1.91068
    A5        1.91077  -0.00001   0.00002  -0.00011  -0.00009   1.91068
    A6        1.91050   0.00001  -0.00002   0.00011   0.00009   1.91059
    D1        2.09456  -0.00001   0.00002  -0.00013  -0.00011   2.09445
    D2       -2.09456   0.00001  -0.00002   0.00013   0.00011  -2.09445
    D3        2.09406   0.00001  -0.00005   0.00027   0.00022   2.09428
    D4       -2.09456   0.00001  -0.00002   0.00013   0.00011  -2.09445
         Item               Value     Threshold  Converged?
 Maximum Force            0.000092     0.000002     NO 
 RMS     Force            0.000039     0.000001     NO 
 Maximum Displacement     0.000216     0.000006     NO 
 RMS     Displacement     0.000116     0.000004     NO 
 Predicted change in Energy=-3.261024D-08
 GradGradGradGradGradGradGradGradGradGradGradGradGradGradGradGradGradGrad

                          Input orientation:                          
 ---------------------------------------------------------------------
 Center     Atomic      Atomic             Coordinates (Angstroms)
 Number     Number       Type             X           Y           Z
 ---------------------------------------------------------------------
      1          6           0       -0.000266   -0.000000    0.000094
      2          1           0        0.000234   -0.000000    1.098263
      3          1           0        1.034901    0.000000   -0.366478
      4          1           0       -0.518175    0.896637   -0.365678
      5          1           0       -0.518175   -0.896637   -0.365678
 ---------------------------------------------------------------------
                    Distance matrix (angstroms):
                    1          2          3          4          5
     1  C    0.000000
     2  H    1.098169   0.000000
     3  H    1.098155   1.793321   0.000000
     4  H    1.098169   1.793273   1.793321   0.000000
     5  H    1.098169   1.793273   1.793321   1.793273   0.000000
 Stoichiometry    CH4
 Framework group  C3V[C3(CH),3SGV(H)]
 Deg. of freedom     3
 Full point group                 C3V     NOp   6
 Largest Abelian subgroup         CS      NOp   2
 Largest concise Abelian subgroup CS      NOp   2
                         Standard orientation:                         
 ---------------------------------------------------------------------
 Center     Atomic      Atomic             Coordinates (Angstroms)
 Number     Number       Type             X           Y           Z
 ---------------------------------------------------------------------
      1          6           0        0.000000    0.000000    0.000016
      2          1           0       -0.000000    1.035347   -0.366089
      3          1           0        0.000000    0.000000    1.098171
      4          1           0        0.896637   -0.517673   -0.366089
      5          1           0       -0.896637   -0.517673   -0.366089
 ---------------------------------------------------------------------
 Rotational constants (GHZ):    122.9859811     87.5240821     76.0855700
 Standard basis: Aug-CC-pVDZ (5D, 7F)
 There are    41 symmetry adapted cartesian basis functions of A'  symmetry.
 There are    20 symmetry adapted cartesian basis functions of A"  symmetry.
 There are    39 symmetry adapted basis functions of A'  symmetry.
 There are    20 symmetry adapted basis functions of A"  symmetry.
    59 basis functions,    87 primitive gaussians,    61 cartesian basis functions
     5 alpha electrons        5 beta electrons
       nuclear repulsion energy        13.3354848922 Hartrees.
 NAtoms=    5 NActive=    5 NUniq=    3 SFac= 2.78D+00 NAtFMM=   60 NAOKFM=F Big=F
 Integral buffers will be    131072 words long.
 Raffenetti 1 integral format.
 Two-electron integral symmetry is turned on.
 One-electron integrals computed using PRISM.
 NBasis=    59 RedAO= T EigKep=  6.35D-04  NBF=    39    20
 NBsUse=    59 1.00D-06 EigRej= -1.00D+00 NBFU=    39    20
 Initial guess from the checkpoint file:  "CH2DT_freq.chk"
 B after Tr=    -0.000000    0.000000   -0.000000
         Rot=    1.000000    0.000000    0.000000    0.000000 Ang=   0.00 deg.
 Initial guess orbital symmetries:
       Occupied  (A1) (A1) (A1) (E) (E)
       Virtual   (?A) (?A) (?A) (?A) (?A) (?A) (?A) (?A) (?A) (?A)
                 (?A) (?A) (?A) (?A) (?A) (?A) (?A) (?A) (?A) (?A)
                 (?A) (?A) (?A) (?A) (?A) (?A) (?A) (?A) (?A) (?A)
                 (?A) (?A) (?A) (?A) (?A) (?A) (?A) (?A) (?A) (?A)
                 (?A) (?A) (?A) (?A) (?A) (?A) (?A) (?A) (?A) (?A)
                 (?A) (?A) (?A) (?A)
 Keep R1 ints in memory in symmetry-blocked form, NReq=2451333.
 Requested convergence on RMS density matrix=1.00D-08 within 128 cycles.
 Requested convergence on MAX density matrix=1.00D-06.
 Requested convergence on             energy=1.00D-06.
 No special actions if energy rises.
 SCF Done:  E(RHF) =  -40.1994279800     A.U. after    5 cycles
            NFock=  5  Conv=0.84D-08     -V/T= 2.0032
 ExpMin= 2.97D-02 ExpMax= 6.67D+03 ExpMxC= 2.28D+02 IAcc=3 IRadAn=         5 AccDes= 0.00D+00
 HarFok:  IExCor=  205 AccDes= 0.00D+00 IRadAn=         5 IDoV=-2 UseB2=F ITyADJ=14
 ICtDFT= 12500011 ScaDFX=  1.000000  1.000000  1.000000  1.000000
 Range of M.O.s used for correlation:     2    59
 NBasis=    59 NAE=     5 NBE=     5 NFC=     1 NFV=     0
 NROrb=     58 NOA=     4 NOB=     4 NVA=    54 NVB=    54

 **** Warning!!: The largest alpha MO coefficient is  0.18866729D+02

 Fully direct method using O(ONN) memory.
 JobTyp=1 Pass  1:  I=   2 to   5 NPSUse=  8 ParTrn=T ParDer=T DoDerP=T.
 Spin components of T(2) and E(2):
     alpha-alpha T2 =       0.5837923927D-02 E2=     -0.1593371567D-01
     alpha-beta  T2 =       0.4613786383D-01 E2=     -0.1364310941D+00
     beta-beta   T2 =       0.5837923927D-02 E2=     -0.1593371567D-01
 ANorm=    0.1028500711D+01
 E2 =    -0.1682985254D+00 EUMP2 =    -0.40367726505468D+02
          IDoAtm=11111
          Differentiating once with respect to electric field.
                with respect to dipole field.
          Differentiating once with respect to nuclear coordinates.
 Keep R1 ints in memory in symmetry-blocked form, NReq=2431790.
          There are     1 degrees of freedom in the 1st order CPHF.  IDoFFX=0 NUNeed=     1.
 LinEq1:  Iter=  0 NonCon=     1 RMS=3.80D-03 Max=1.53D-02 NDo=     1
 AX will form     1 AO Fock derivatives at one time.
 LinEq1:  Iter=  1 NonCon=     1 RMS=8.57D-04 Max=3.75D-03 NDo=     1
 LinEq1:  Iter=  2 NonCon=     1 RMS=2.32D-04 Max=1.68D-03 NDo=     1
 LinEq1:  Iter=  3 NonCon=     1 RMS=1.57D-05 Max=1.09D-04 NDo=     1
 LinEq1:  Iter=  4 NonCon=     1 RMS=8.30D-07 Max=6.54D-06 NDo=     1
 LinEq1:  Iter=  5 NonCon=     1 RMS=4.53D-08 Max=2.69D-07 NDo=     1
 LinEq1:  Iter=  6 NonCon=     1 RMS=3.15D-09 Max=2.00D-08 NDo=     1
 LinEq1:  Iter=  7 NonCon=     1 RMS=1.97D-10 Max=1.46D-09 NDo=     1
 LinEq1:  Iter=  8 NonCon=     0 RMS=7.28D-12 Max=4.53D-11 NDo=     1
 Linear equations converged to 1.000D-10 1.000D-09 after     8 iterations.
 End of Minotr F.D. properties file   721 does not exist.
 End of Minotr F.D. properties file   722 does not exist.
 End of Minotr F.D. properties file   788 does not exist.
 Calling FoFJK, ICntrl=  10002127 FMM=F ISym2X=1 I1Cent= 0 IOpClX= 0 NMat=1 NMatS=1 NMatT=0.
 ***** Axes restored to original set *****
 -------------------------------------------------------------------
 Center     Atomic                   Forces (Hartrees/Bohr)
 Number     Number              X              Y              Z
 -------------------------------------------------------------------
      1        6          -0.000019954    0.000000000    0.000007066
      2        1           0.000005228    0.000000000   -0.000001221
      3        1           0.000004865   -0.000000000   -0.000001723
      4        1           0.000004930    0.000000515   -0.000002061
      5        1           0.000004930   -0.000000515   -0.000002061
 -------------------------------------------------------------------
 Cartesian Forces:  Max     0.000019954 RMS     0.000006117

 GradGradGradGradGradGradGradGradGradGradGradGradGradGradGradGradGradGrad
 Berny optimization.
 Using GEDIIS/GDIIS optimizer.
 FormGI is forming the generalized inverse of G from B-inverse, IUseBI=4.
 Internal  Forces:  Max     0.000005161 RMS     0.000002728
 Search for a local minimum.
 Step number   3 out of a maximum of   24
 All quantities printed in internal units (Hartrees-Bohrs-Radians)
 Mixed Optimization -- En-DIIS/RFO-DIIS
 Swapping is turned off.
 Update second derivatives using D2CorX and points    1    2    3
 DE= -3.48D-08 DEPred=-3.26D-08 R= 1.07D+00
 Trust test= 1.07D+00 RLast= 5.38D-04 DXMaxT set to 3.00D-01
 The second derivative matrix:
                          R1        R2        R3        R4        A1
           R1           0.34667
           R2           0.00742   0.33728
           R3           0.00985   0.00742   0.34667
           R4           0.00985   0.00742   0.00985   0.34667
           A1           0.01039   0.01718   0.01039   0.01039   0.15518
           A2          -0.01165  -0.01906  -0.01165  -0.01165   0.00498
           A3          -0.00732  -0.01260  -0.00732  -0.00732   0.00445
           A4           0.00920   0.01540   0.00920   0.00920  -0.00468
           A5           0.00605   0.01069   0.00605   0.00605  -0.00429
           A6          -0.00667  -0.01162  -0.00667  -0.00667   0.00437
           D1          -0.00386  -0.00574  -0.00386  -0.00386   0.00041
           D2           0.00314   0.00466   0.00314   0.00314  -0.00032
           D3           0.00734   0.01091   0.00734   0.00734  -0.00077
           D4           0.00420   0.00625   0.00420   0.00420  -0.00045
                          A2        A3        A4        A5        A6
           A2           0.15490
           A3          -0.00467   0.15610
           A4           0.00486   0.00424   0.15549
           A5           0.00455   0.00368  -0.00405   0.15658
           A6          -0.00461  -0.00379   0.00414   0.00355   0.15634
           D1          -0.00031  -0.00064   0.00050   0.00074  -0.00069
           D2           0.00024   0.00051  -0.00039  -0.00059   0.00055
           D3           0.00059   0.00121  -0.00094  -0.00140   0.00131
           D4           0.00035   0.00070  -0.00055  -0.00081   0.00076
                          D1        D2        D3        D4
           D1           0.00261
           D2          -0.00026   0.00251
           D3          -0.00060   0.00049   0.00344
           D4          -0.00034   0.00028   0.00065   0.00267
 ITU=  0  1  0
     Eigenvalues ---    0.04874   0.05477   0.08631   0.15849   0.16000
     Eigenvalues ---    0.33258   0.33682   0.33682   0.37171
 En-DIIS/RFO-DIIS IScMMF=        0 using points:     3    2    1
 RFO step:  Lambda= 0.00000000D+00.
 DidBck=F Rises=F RFO-DIIS coefs:    1.42591   -0.40328   -0.02263
 Iteration  1 RMS(Cart)=  0.00002776 RMS(Int)=  0.00000001
 Iteration  2 RMS(Cart)=  0.00000000 RMS(Int)=  0.00000001
 ClnCor:  largest displacement from symmetrization is 2.19D-08 for atom     5.
 Variable       Old X    -DE/DX   Delta X   Delta X   Delta X     New X
                                 (Linear)    (Quad)   (Total)
    R1        2.07524  -0.00000  -0.00001   0.00000  -0.00001   2.07523
    R2        2.07521   0.00001   0.00002  -0.00000   0.00002   2.07523
    R3        2.07524  -0.00000  -0.00001   0.00000  -0.00001   2.07523
    R4        2.07524  -0.00000  -0.00001   0.00000  -0.00001   2.07523
    A1        1.91068  -0.00000  -0.00005  -0.00000  -0.00005   1.91063
    A2        1.91059   0.00000   0.00005   0.00000   0.00005   1.91063
    A3        1.91059   0.00000   0.00005   0.00000   0.00005   1.91063
    A4        1.91068  -0.00000  -0.00005  -0.00000  -0.00005   1.91063
    A5        1.91068  -0.00000  -0.00005  -0.00000  -0.00005   1.91063
    A6        1.91059   0.00000   0.00005   0.00000   0.00005   1.91063
    D1        2.09445  -0.00000  -0.00006  -0.00000  -0.00006   2.09440
    D2       -2.09445   0.00000   0.00006   0.00000   0.00006  -2.09440
    D3        2.09428   0.00000   0.00011   0.00000   0.00012   2.09440
    D4       -2.09445   0.00000   0.00006   0.00000   0.00006  -2.09440
         Item               Value     Threshold  Converged?
 Maximum Force            0.000005     0.000002     NO 
 RMS     Force            0.000003     0.000001     NO 
 Maximum Displacement     0.000057     0.000006     NO 
 RMS     Displacement     0.000028     0.000004     NO 
 Predicted change in Energy=-5.914305D-10
 GradGradGradGradGradGradGradGradGradGradGradGradGradGradGradGradGradGrad

                          Input orientation:                          
 ---------------------------------------------------------------------
 Center     Atomic      Atomic             Coordinates (Angstroms)
 Number     Number       Type             X           Y           Z
 ---------------------------------------------------------------------
      1          6           0       -0.000296   -0.000000    0.000105
      2          1           0        0.000256    0.000000    1.098271
      3          1           0        1.034881   -0.000000   -0.366471
      4          1           0       -0.518160    0.896649   -0.365691
      5          1           0       -0.518160   -0.896649   -0.365691
 ---------------------------------------------------------------------
                    Distance matrix (angstroms):
                    1          2          3          4          5
     1  C    0.000000
     2  H    1.098166   0.000000
     3  H    1.098166   1.793298   0.000000
     4  H    1.098166   1.793298   1.793298   0.000000
     5  H    1.098166   1.793298   1.793298   1.793298   0.000000
 Stoichiometry    CH4
 Framework group  C3V[C3(CH),3SGV(H)]
 Deg. of freedom     3
 Full point group                 C3V     NOp   6
 Largest Abelian subgroup         CS      NOp   2
 Largest concise Abelian subgroup CS      NOp   2
                         Standard orientation:                         
 ---------------------------------------------------------------------
 Center     Atomic      Atomic             Coordinates (Angstroms)
 Number     Number       Type             X           Y           Z
 ---------------------------------------------------------------------
      1          6           0       -0.000000   -0.000000    0.000000
      2          1           0        0.000000    1.035361   -0.366055
      3          1           0       -0.000000   -0.000000    1.098166
      4          1           0        0.896649   -0.517681   -0.366055
      5          1           0       -0.896649   -0.517681   -0.366055
 ---------------------------------------------------------------------
 Rotational constants (GHZ):    122.9883132     87.5233434     76.0849329
 Standard basis: Aug-CC-pVDZ (5D, 7F)
 There are    41 symmetry adapted cartesian basis functions of A'  symmetry.
 There are    20 symmetry adapted cartesian basis functions of A"  symmetry.
 There are    39 symmetry adapted basis functions of A'  symmetry.
 There are    20 symmetry adapted basis functions of A"  symmetry.
    59 basis functions,    87 primitive gaussians,    61 cartesian basis functions
     5 alpha electrons        5 beta electrons
       nuclear repulsion energy        13.3354806992 Hartrees.
 NAtoms=    5 NActive=    5 NUniq=    3 SFac= 2.78D+00 NAtFMM=   60 NAOKFM=F Big=F
 Integral buffers will be    131072 words long.
 Raffenetti 1 integral format.
 Two-electron integral symmetry is turned on.
 One-electron integrals computed using PRISM.
 NBasis=    59 RedAO= T EigKep=  6.35D-04  NBF=    39    20
 NBsUse=    59 1.00D-06 EigRej= -1.00D+00 NBFU=    39    20
 Initial guess from the checkpoint file:  "CH2DT_freq.chk"
 B after Tr=    -0.000000   -0.000000   -0.000000
         Rot=    1.000000   -0.000000   -0.000000    0.000000 Ang=   0.00 deg.
 Initial guess orbital symmetries:
       Occupied  (A1) (A1) (A1) (E) (E)
       Virtual   (?A) (?A) (?A) (?A) (?A) (?A) (?A) (?A) (?A) (?A)
                 (?A) (?A) (?A) (?A) (?A) (?A) (?A) (?A) (?A) (?A)
                 (?A) (?A) (?A) (?A) (?A) (?A) (?A) (?A) (?A) (?A)
                 (?A) (?A) (?A) (?A) (?A) (?A) (?A) (?A) (?A) (?A)
                 (?A) (?A) (?A) (?A) (?A) (?A) (?A) (?A) (?A) (?A)
                 (?A) (?A) (?A) (?A)
 Keep R1 ints in memory in symmetry-blocked form, NReq=2451333.
 Requested convergence on RMS density matrix=1.00D-08 within 128 cycles.
 Requested convergence on MAX density matrix=1.00D-06.
 Requested convergence on             energy=1.00D-06.
 No special actions if energy rises.
 SCF Done:  E(RHF) =  -40.1994279650     A.U. after    5 cycles
            NFock=  5  Conv=0.10D-08     -V/T= 2.0032
 ExpMin= 2.97D-02 ExpMax= 6.67D+03 ExpMxC= 2.28D+02 IAcc=3 IRadAn=         5 AccDes= 0.00D+00
 HarFok:  IExCor=  205 AccDes= 0.00D+00 IRadAn=         5 IDoV=-2 UseB2=F ITyADJ=14
 ICtDFT= 12500011 ScaDFX=  1.000000  1.000000  1.000000  1.000000
 Range of M.O.s used for correlation:     2    59
 NBasis=    59 NAE=     5 NBE=     5 NFC=     1 NFV=     0
 NROrb=     58 NOA=     4 NOB=     4 NVA=    54 NVB=    54

 **** Warning!!: The largest alpha MO coefficient is  0.18866721D+02

 Fully direct method using O(ONN) memory.
 JobTyp=1 Pass  1:  I=   2 to   5 NPSUse=  8 ParTrn=T ParDer=T DoDerP=T.
 Spin components of T(2) and E(2):
     alpha-alpha T2 =       0.5837925391D-02 E2=     -0.1593371556D-01
     alpha-beta  T2 =       0.4613788295D-01 E2=     -0.1364311099D+00
     beta-beta   T2 =       0.5837925391D-02 E2=     -0.1593371556D-01
 ANorm=    0.1028500721D+01
 E2 =    -0.1682985410D+00 EUMP2 =    -0.40367726505937D+02
          IDoAtm=11111
          Differentiating once with respect to electric field.
                with respect to dipole field.
          Differentiating once with respect to nuclear coordinates.
 Keep R1 ints in memory in symmetry-blocked form, NReq=2431790.
          There are     1 degrees of freedom in the 1st order CPHF.  IDoFFX=0 NUNeed=     1.
 LinEq1:  Iter=  0 NonCon=     1 RMS=3.80D-03 Max=1.53D-02 NDo=     1
 AX will form     1 AO Fock derivatives at one time.
 LinEq1:  Iter=  1 NonCon=     1 RMS=8.57D-04 Max=3.75D-03 NDo=     1
 LinEq1:  Iter=  2 NonCon=     1 RMS=2.32D-04 Max=1.68D-03 NDo=     1
 LinEq1:  Iter=  3 NonCon=     1 RMS=1.57D-05 Max=1.09D-04 NDo=     1
 LinEq1:  Iter=  4 NonCon=     1 RMS=8.30D-07 Max=6.54D-06 NDo=     1
 LinEq1:  Iter=  5 NonCon=     1 RMS=4.53D-08 Max=2.69D-07 NDo=     1
 LinEq1:  Iter=  6 NonCon=     1 RMS=3.15D-09 Max=2.00D-08 NDo=     1
 LinEq1:  Iter=  7 NonCon=     1 RMS=1.97D-10 Max=1.47D-09 NDo=     1
 LinEq1:  Iter=  8 NonCon=     0 RMS=6.88D-12 Max=4.62D-11 NDo=     1
 Linear equations converged to 1.000D-10 1.000D-09 after     8 iterations.
 End of Minotr F.D. properties file   721 does not exist.
 End of Minotr F.D. properties file   722 does not exist.
 End of Minotr F.D. properties file   788 does not exist.
 Calling FoFJK, ICntrl=  10002127 FMM=F ISym2X=1 I1Cent= 0 IOpClX= 0 NMat=1 NMatS=1 NMatT=0.
 ***** Axes restored to original set *****
 -------------------------------------------------------------------
 Center     Atomic                   Forces (Hartrees/Bohr)
 Number     Number              X              Y              Z
 -------------------------------------------------------------------
      1        6          -0.000000135   -0.000000000    0.000000048
      2        1          -0.000000004    0.000000000    0.000000102
      3        1           0.000000240   -0.000000000   -0.000000085
      4        1          -0.000000051    0.000000082   -0.000000032
      5        1          -0.000000051   -0.000000082   -0.000000032
 -------------------------------------------------------------------
 Cartesian Forces:  Max     0.000000240 RMS     0.000000088

 GradGradGradGradGradGradGradGradGradGradGradGradGradGradGradGradGradGrad
 Berny optimization.
 Using GEDIIS/GDIIS optimizer.
 FormGI is forming the generalized inverse of G from B-inverse, IUseBI=4.
 Internal  Forces:  Max     0.000000255 RMS     0.000000083
 Search for a local minimum.
 Step number   4 out of a maximum of   24
 All quantities printed in internal units (Hartrees-Bohrs-Radians)
 Mixed Optimization -- En-DIIS/RFO-DIIS
 Swapping is turned off.
 Update second derivatives using D2CorX and points    1    2    3    4
 DE= -4.69D-10 DEPred=-5.91D-10 R= 7.93D-01
 Trust test= 7.93D-01 RLast= 1.93D-04 DXMaxT set to 3.00D-01
 The second derivative matrix:
                          R1        R2        R3        R4        A1
           R1           0.34379
           R2           0.01095   0.34039
           R3           0.00697   0.01095   0.34379
           R4           0.00697   0.01095   0.00697   0.34379
           A1           0.00316   0.02955   0.00316   0.00316   0.13822
           A2          -0.00409  -0.03349  -0.00409  -0.00409   0.02211
           A3          -0.00089  -0.01990  -0.00089  -0.00089   0.02100
           A4           0.00228   0.02579   0.00228   0.00228  -0.02148
           A5          -0.00005   0.01590  -0.00005  -0.00005  -0.02068
           A6          -0.00041  -0.01785  -0.00041  -0.00041   0.02084
           D1          -0.00293  -0.01218  -0.00293  -0.00293   0.00065
           D2           0.00240   0.00992   0.00240   0.00240  -0.00046
           D3           0.00559   0.02317   0.00559   0.00559  -0.00120
           D4           0.00319   0.01326   0.00319   0.00319  -0.00073
                          A2        A3        A4        A5        A6
           A2           0.13791
           A3          -0.02214   0.14178
           A4           0.02212   0.01992   0.13913
           A5           0.02215   0.01707  -0.01927   0.14443
           A6          -0.02215  -0.01763   0.01959   0.01630   0.14305
           D1           0.00043  -0.00329   0.00167   0.00439  -0.00385
           D2          -0.00043   0.00264  -0.00131  -0.00354   0.00310
           D3          -0.00086   0.00624  -0.00316  -0.00833   0.00731
           D4          -0.00044   0.00360  -0.00185  -0.00479   0.00421
                          D1        D2        D3        D4
           D1           0.00579
           D2          -0.00287   0.00466
           D3          -0.00666   0.00548   0.01500
           D4          -0.00379   0.00312   0.00723   0.00641
 ITU=  0  0  1  0
     Eigenvalues ---    0.04022   0.05334   0.08620   0.15607   0.16000
     Eigenvalues ---    0.32882   0.33682   0.33682   0.36992
 En-DIIS/RFO-DIIS IScMMF=        0 using points:     4    3    2    1
 RFO step:  Lambda= 0.00000000D+00.
 DidBck=F Rises=F RFO-DIIS coefs:    0.92482    0.10813   -0.03130   -0.00165
 Iteration  1 RMS(Cart)=  0.00000021 RMS(Int)=  0.00000000
 ClnCor:  largest displacement from symmetrization is 2.92D-10 for atom     5.
 Variable       Old X    -DE/DX   Delta X   Delta X   Delta X     New X
                                 (Linear)    (Quad)   (Total)
    R1        2.07523   0.00000   0.00000  -0.00000   0.00000   2.07523
    R2        2.07523   0.00000   0.00000   0.00000   0.00000   2.07523
    R3        2.07523   0.00000   0.00000   0.00000   0.00000   2.07523
    R4        2.07523   0.00000   0.00000   0.00000   0.00000   2.07523
    A1        1.91063   0.00000  -0.00000  -0.00000  -0.00000   1.91063
    A2        1.91063  -0.00000   0.00000   0.00000   0.00000   1.91063
    A3        1.91063  -0.00000   0.00000  -0.00000   0.00000   1.91063
    A4        1.91063   0.00000  -0.00000  -0.00000  -0.00000   1.91063
    A5        1.91063   0.00000  -0.00000   0.00000  -0.00000   1.91063
    A6        1.91063  -0.00000   0.00000  -0.00000   0.00000   1.91063
    D1        2.09440   0.00000   0.00000   0.00000  -0.00000   2.09440
    D2       -2.09440  -0.00000  -0.00000   0.00000   0.00000  -2.09440
    D3        2.09440  -0.00000  -0.00000   0.00000   0.00000   2.09440
    D4       -2.09440  -0.00000  -0.00000   0.00000   0.00000  -2.09440
         Item               Value     Threshold  Converged?
 Maximum Force            0.000000     0.000002     YES
 RMS     Force            0.000000     0.000001     YES
 Maximum Displacement     0.000001     0.000006     YES
 RMS     Displacement     0.000000     0.000004     YES
 Predicted change in Energy=-1.318427D-13
 Optimization completed.
    -- Stationary point found.
                           ----------------------------
                           !   Optimized Parameters   !
                           ! (Angstroms and Degrees)  !
 --------------------------                            --------------------------
 ! Name  Definition              Value          Derivative Info.                !
 --------------------------------------------------------------------------------
 ! R1    R(1,2)                  1.0982         -DE/DX =    0.0                 !
 ! R2    R(1,3)                  1.0982         -DE/DX =    0.0                 !
 ! R3    R(1,4)                  1.0982         -DE/DX =    0.0                 !
 ! R4    R(1,5)                  1.0982         -DE/DX =    0.0                 !
 ! A1    A(2,1,3)              109.4712         -DE/DX =    0.0                 !
 ! A2    A(2,1,4)              109.4712         -DE/DX =    0.0                 !
 ! A3    A(2,1,5)              109.4712         -DE/DX =    0.0                 !
 ! A4    A(3,1,4)              109.4712         -DE/DX =    0.0                 !
 ! A5    A(3,1,5)              109.4712         -DE/DX =    0.0                 !
 ! A6    A(4,1,5)              109.4712         -DE/DX =    0.0                 !
 ! D1    D(2,1,4,3)            120.0            -DE/DX =    0.0                 !
 ! D2    D(2,1,5,3)           -120.0            -DE/DX =    0.0                 !
 ! D3    D(2,1,5,4)            120.0            -DE/DX =    0.0                 !
 ! D4    D(3,1,5,4)           -120.0            -DE/DX =    0.0                 !
 --------------------------------------------------------------------------------
 GradGradGradGradGradGradGradGradGradGradGradGradGradGradGradGradGradGrad

                          Input orientation:                          
 ---------------------------------------------------------------------
 Center     Atomic      Atomic             Coordinates (Angstroms)
 Number     Number       Type             X           Y           Z
 ---------------------------------------------------------------------
      1          6           0       -0.000296   -0.000000    0.000105
      2          1           0        0.000256    0.000000    1.098271
      3          1           0        1.034881   -0.000000   -0.366471
      4          1           0       -0.518160    0.896649   -0.365691
      5          1           0       -0.518160   -0.896649   -0.365691
 ---------------------------------------------------------------------
                    Distance matrix (angstroms):
                    1          2          3          4          5
     1  C    0.000000
     2  H    1.098166   0.000000
     3  H    1.098166   1.793298   0.000000
     4  H    1.098166   1.793298   1.793298   0.000000
     5  H    1.098166   1.793298   1.793298   1.793298   0.000000
 Stoichiometry    CH4
 Framework group  C3V[C3(CH),3SGV(H)]
 Deg. of freedom     3
 Full point group                 C3V     NOp   6
 Largest Abelian subgroup         CS      NOp   2
 Largest concise Abelian subgroup CS      NOp   2
                         Standard orientation:                         
 ---------------------------------------------------------------------
 Center     Atomic      Atomic             Coordinates (Angstroms)
 Number     Number       Type             X           Y           Z
 ---------------------------------------------------------------------
      1          6           0       -0.000000   -0.000000    0.000000
      2          1           0       -0.000000    1.035361   -0.366055
      3          1           0       -0.000000   -0.000000    1.098166
      4          1           0        0.896649   -0.517681   -0.366055
      5          1           0       -0.896649   -0.517681   -0.366055
 ---------------------------------------------------------------------
 Rotational constants (GHZ):    122.9883132     87.5233434     76.0849329

 **********************************************************************

            Population analysis using the MP2 density.

 **********************************************************************

 Orbital symmetries:
       Occupied  (A1) (A1) (A1) (E) (E)
       Virtual   (A1) (A1) (E) (E) (E) (E) (A1) (A1) (E) (E) (A1)
                 (E) (E) (A1) (A1) (E) (E) (A2) (E) (E) (A1) (E)
                 (E) (A1) (A1) (E) (E) (E) (E) (E) (E) (A1) (A1)
                 (A1) (E) (E) (E) (E) (A2) (E) (E) (A1) (E) (E)
                 (A1) (A1) (E) (E) (E) (E) (A1) (E) (E) (A1)
 The electronic state is 1-A1.
 Alpha  occ. eigenvalues --  -11.21968  -0.93993  -0.54163  -0.54163  -0.54163
 Alpha virt. eigenvalues --    0.03692   0.06377   0.06377   0.06377   0.14602
 Alpha virt. eigenvalues --    0.14602   0.14602   0.17413   0.29884   0.29884
 Alpha virt. eigenvalues --    0.29884   0.30590   0.30590   0.41552   0.44025
 Alpha virt. eigenvalues --    0.44025   0.44025   0.52139   0.52139   0.52139
 Alpha virt. eigenvalues --    0.56709   0.60633   0.60633   0.60633   0.66662
 Alpha virt. eigenvalues --    0.66662   0.66662   0.73309   0.73309   0.98332
 Alpha virt. eigenvalues --    0.98332   0.98332   1.11607   1.34631   1.34631
 Alpha virt. eigenvalues --    1.34631   1.73971   1.73971   1.88521   1.88521
 Alpha virt. eigenvalues --    1.88521   1.98575   2.19874   2.19874   2.19874
 Alpha virt. eigenvalues --    2.28184   2.28184   2.28184   2.62056   2.62056
 Alpha virt. eigenvalues --    2.80512   2.90965   2.90965   2.90965
          Condensed to atoms (all electrons):
               1          2          3          4          5
     1  C    4.125301   0.321154   0.321154   0.321154   0.321154
     2  H    0.321154   1.172240  -0.115291  -0.115291  -0.115291
     3  H    0.321154  -0.115291   1.172240  -0.115291  -0.115291
     4  H    0.321154  -0.115291  -0.115291   1.172240  -0.115291
     5  H    0.321154  -0.115291  -0.115291  -0.115291   1.172240
 Mulliken charges:
               1
     1  C    0.590082
     2  H   -0.147520
     3  H   -0.147521
     4  H   -0.147520
     5  H   -0.147520
 Sum of Mulliken charges =  -0.00000
 Mulliken charges with hydrogens summed into heavy atoms:
               1
     1  C   -0.000000
 Electronic spatial extent (au):  <R**2>=             36.3871
 Charge=             -0.0000 electrons
 Dipole moment (field-independent basis, Debye):
    X=             -0.0000    Y=              0.0000    Z=              0.0000  Tot=              0.0000
 Quadrupole moment (field-independent basis, Debye-Ang):
   XX=             -8.5906   YY=             -8.5906   ZZ=             -8.5906
   XY=              0.0000   XZ=              0.0000   YZ=             -0.0000
 Traceless Quadrupole moment (field-independent basis, Debye-Ang):
   XX=              0.0000   YY=              0.0000   ZZ=             -0.0000
   XY=              0.0000   XZ=              0.0000   YZ=             -0.0000
 Octapole moment (field-independent basis, Debye-Ang**2):
  XXX=              0.0000  YYY=              0.6282  ZZZ=              0.8884  XYY=             -0.0000
  XXY=             -0.6282  XXZ=             -0.4442  XZZ=             -0.0000  YZZ=              0.0000
  YYZ=             -0.4442  XYZ=             -0.0000
 Hexadecapole moment (field-independent basis, Debye-Ang**3):
 XXXX=            -16.7929 YYYY=            -16.7929 ZZZZ=            -16.5198 XXXY=              0.0000
 XXXZ=              0.0000 YYYX=              0.0000 YYYZ=             -0.3861 ZZZX=              0.0000
 ZZZY=             -0.0000 XXYY=             -5.5976 XXZZ=             -5.8707 YYZZ=             -5.8707
 XXYZ=              0.3861 YYXZ=              0.0000 ZZXY=              0.0000
 N-N= 1.333548069915D+01 E-N=-1.196029487131D+02  KE= 4.019779679692D+01
 Symmetry A'   KE= 3.829205133511D+01
 Symmetry A"   KE= 1.905745461816D+00
 B after Tr=     0.000281   -0.000000   -0.000099
         Rot=    1.000000   -0.000000    0.000000    0.000000 Ang=   0.00 deg.
 Final structure in terms of initial Z-matrix:
 C
 H,1,R
 H,1,R,2,A
 H,1,R,3,A,2,D,0
 H,1,R,3,A,2,D2,0
      Variables:
 R=1.09816626
 A=109.47122072
 D=120.
 D2=-120.
 1\1\GINC-ARGON\FOpt\RMP2-FC\Aug-CC-pVDZ\C1H4\B3M2A1\11-Oct-2020\0\\#MP
 2/aug-cc-pvdz #Density=current #Opt=VeryTight #Frequency=Anharmonic\\D
 euterated/tritiated methane freq\\0,1\C,-0.0002959432,0.,0.000104799\H
 ,0.0002556593,0.0000000006,1.0982709217\H,1.034880924,0.000000001,-0.3
 664705566\H,-0.5181602884,0.8966489963,-0.3656905463\H,-0.5181602864,-
 0.8966489979,-0.3656905454\\Version=ES64L-G09RevE.01\State=1-A1\HF=-40
 .199428\MP2=-40.3677265\RMSD=1.001e-09\RMSF=8.812e-08\Dipole=0.,0.,0.\
 Quadrupole=0.,0.,0.,0.,0.,0.\PG=C03V [C3(C1H1),3SGV(H1)]\\@


 OPTIMIST - A PESSIMIST WHO LACKS EXPERIENCE
 Job cpu time:       0 days  0 hours  0 minutes 35.1 seconds.
 File lengths (MBytes):  RWF=      5 Int=      0 D2E=      0 Chk=      1 Scr=      1
 Normal termination of Gaussian 09 at Sun Oct 11 17:08:22 2020.
 Link1:  Proceeding to internal job step number  2.
 ----------------------------------------------------------------------
 #N Geom=AllCheck Guess=TCheck SCRF=Check GenChk RMP2(FC)/Aug-CC-pVDZ F
 req
 ----------------------------------------------------------------------
 1/7=1,10=4,29=7,30=1,38=21,40=1,80=1/1,6,3;
 2/12=2,40=1/2;
 3/5=16,7=10,11=1,14=-4,16=1,25=1,30=1,70=2,71=2,116=1,140=1/1,2,3;
 4/5=101,69=2/1;
 5/5=2,38=6,96=-2,98=1/2;
 8/6=3,8=1,10=1,19=11,30=-1/1;
 9/15=3,16=-3/6;
 11/6=1,8=1,15=11,17=12,24=-1,27=1,28=-2,29=300,32=6,42=3/1,2,10;
 10/6=2,21=1,60=-2/2;
 8/6=4,8=1,10=1,19=11,30=-1/11,4;
 10/5=1,20=4,60=-2/2;
 11/12=2,14=11,16=1,17=2,28=-2,42=3/2,10,12;
 6/7=2,8=2,9=2,10=2,22=-1/1;
 7/10=1,12=2,25=1,44=2,71=2/1,2,3,16;
 1/7=1,38=20,80=1/6(3);
 7/8=1,25=2,44=-1,71=2/16,17;
 1/7=1,10=4,30=1,38=20,80=1/3;
 99/8=1000/99;
 3/5=16,7=10,11=1,14=-2,16=1,25=1,30=1,70=5,71=2,116=1,140=1/1,2,3;
 4/5=5,16=3,69=2/1;
 5/5=2,38=5,96=-2,98=1/2;
 8/6=3,8=1,10=1,19=11,30=-1/1;
 9/15=3,16=-3/6;
 11/6=1,8=1,15=11,17=12,24=-1,27=1,28=-2,29=300,32=6,42=3/1,2,10;
 10/6=2,21=1,60=-2/2;
 8/6=4,8=1,10=1,19=11,30=-1/11,4;
 10/5=1,20=4,60=-2/2;
 11/12=2,14=11,16=1,17=2,28=-2,42=3/2,10,12;
 6/7=2,8=2,9=2,10=2,22=-1/1;
 7/7=1,10=1,12=2,25=1,44=2,71=1/1,2,3,16;
 1/7=1,38=20,80=1/6(-12);
 7/8=1,25=2,44=-1,71=1/16,17;
 1/7=1,10=4,30=1,38=20,80=1/3;
 99/8=1000/99;
 Structure from the checkpoint file:  "CH2DT_freq.chk"
 ---------------------------------
 Deuterated/tritiated methane freq
 ---------------------------------
 Charge =  0 Multiplicity = 1
 Redundant internal coordinates found in file.
 C,0,-0.0002959432,0.,0.000104799
 H,0,0.0002556593,0.0000000006,1.0982709217
 H,0,1.034880924,0.000000001,-0.3664705566
 H,0,-0.5181602884,0.8966489963,-0.3656905463
 H,0,-0.5181602864,-0.8966489979,-0.3656905454
 Recover connectivity data from disk.
 Numerical evaluation of third derivatives.
 Nuclear step= 0.010000 Angstroms, electric field step= 0.000333 atomic units, NStep=1.

 GradGradGradGradGradGradGradGradGradGradGradGradGradGradGradGradGradGrad
 Berny optimization.
 Initialization pass.
                           ----------------------------
                           !    Initial Parameters    !
                           ! (Angstroms and Degrees)  !
 --------------------------                            --------------------------
 ! Name  Definition              Value          Derivative Info.                !
 --------------------------------------------------------------------------------
 ! R1    R(1,2)                  1.0982         calculate D2E/DX2 analytically  !
 ! R2    R(1,3)                  1.0982         calculate D2E/DX2 analytically  !
 ! R3    R(1,4)                  1.0982         calculate D2E/DX2 analytically  !
 ! R4    R(1,5)                  1.0982         calculate D2E/DX2 analytically  !
 ! A1    A(2,1,3)              109.4712         calculate D2E/DX2 analytically  !
 ! A2    A(2,1,4)              109.4712         calculate D2E/DX2 analytically  !
 ! A3    A(2,1,5)              109.4712         calculate D2E/DX2 analytically  !
 ! A4    A(3,1,4)              109.4712         calculate D2E/DX2 analytically  !
 ! A5    A(3,1,5)              109.4712         calculate D2E/DX2 analytically  !
 ! A6    A(4,1,5)              109.4712         calculate D2E/DX2 analytically  !
 ! D1    D(2,1,4,3)            120.0            calculate D2E/DX2 analytically  !
 ! D2    D(2,1,5,3)           -120.0            calculate D2E/DX2 analytically  !
 ! D3    D(2,1,5,4)            120.0            calculate D2E/DX2 analytically  !
 ! D4    D(3,1,5,4)           -120.0            calculate D2E/DX2 analytically  !
 --------------------------------------------------------------------------------
 Trust Radius=3.00D-01 FncErr=1.00D-07 GrdErr=1.00D-07
 Number of steps in this run=      2 maximum allowed number of steps=      2.
 GradGradGradGradGradGradGradGradGradGradGradGradGradGradGradGradGradGrad

                          Input orientation:                          
 ---------------------------------------------------------------------
 Center     Atomic      Atomic             Coordinates (Angstroms)
 Number     Number       Type             X           Y           Z
 ---------------------------------------------------------------------
      1          6           0       -0.000296   -0.000000    0.000105
      2          1           0        0.000256    0.000000    1.098271
      3          1           0        1.034881    0.000000   -0.366471
      4          1           0       -0.518160    0.896649   -0.365691
      5          1           0       -0.518160   -0.896649   -0.365691
 ---------------------------------------------------------------------
                    Distance matrix (angstroms):
                    1          2          3          4          5
     1  C    0.000000
     2  H    1.098166   0.000000
     3  H    1.098166   1.793298   0.000000
     4  H    1.098166   1.793298   1.793298   0.000000
     5  H    1.098166   1.793298   1.793298   1.793298   0.000000
 Stoichiometry    CH4
 Framework group  C3V[C3(CH),3SGV(H)]
 Deg. of freedom     3
 Full point group                 C3V     NOp   6
 Largest Abelian subgroup         CS      NOp   2
 Largest concise Abelian subgroup CS      NOp   2
                         Standard orientation:                         
 ---------------------------------------------------------------------
 Center     Atomic      Atomic             Coordinates (Angstroms)
 Number     Number       Type             X           Y           Z
 ---------------------------------------------------------------------
      1          6           0        0.000000   -0.000000    0.000000
      2          1           0        0.000000    1.035361   -0.366055
      3          1           0        0.000000   -0.000000    1.098166
      4          1           0        0.896649   -0.517681   -0.366055
      5          1           0       -0.896649   -0.517681   -0.366055
 ---------------------------------------------------------------------
 Rotational constants (GHZ):    122.9883132     87.5233434     76.0849329
 Standard basis: Aug-CC-pVDZ (5D, 7F)
 There are    41 symmetry adapted cartesian basis functions of A'  symmetry.
 There are    20 symmetry adapted cartesian basis functions of A"  symmetry.
 There are    39 symmetry adapted basis functions of A'  symmetry.
 There are    20 symmetry adapted basis functions of A"  symmetry.
    59 basis functions,    87 primitive gaussians,    61 cartesian basis functions
     5 alpha electrons        5 beta electrons
       nuclear repulsion energy        13.3354806992 Hartrees.
 NAtoms=    5 NActive=    5 NUniq=    3 SFac= 2.78D+00 NAtFMM=   60 NAOKFM=F Big=F
 Integral buffers will be    131072 words long.
 Raffenetti 1 integral format.
 Two-electron integral symmetry is turned on.
 One-electron integrals computed using PRISM.
 NBasis=    59 RedAO= T EigKep=  6.35D-04  NBF=    39    20
 NBsUse=    59 1.00D-06 EigRej= -1.00D+00 NBFU=    39    20
 Initial guess from the checkpoint file:  "CH2DT_freq.chk"
 B after Tr=    -0.000000    0.000000    0.000000
         Rot=    1.000000    0.000000   -0.000000   -0.000000 Ang=   0.00 deg.
 Initial guess orbital symmetries:
       Occupied  (A1) (A1) (A1) (E) (E)
       Virtual   (A1) (A1) (E) (E) (E) (E) (A1) (A1) (E) (E) (A1)
                 (E) (E) (A1) (A1) (E) (E) (A2) (E) (E) (A1) (E)
                 (E) (A1) (A1) (E) (E) (E) (E) (E) (E) (A1) (A1)
                 (A1) (E) (E) (E) (E) (A2) (E) (E) (A1) (E) (E)
                 (A1) (A1) (E) (E) (E) (E) (A1) (E) (E) (A1)
 Keep R1 ints in memory in symmetry-blocked form, NReq=2451333.
 Requested convergence on RMS density matrix=1.00D-08 within 128 cycles.
 Requested convergence on MAX density matrix=1.00D-06.
 Requested convergence on             energy=1.00D-06.
 No special actions if energy rises.
 SCF Done:  E(RHF) =  -40.1994279650     A.U. after    1 cycles
            NFock=  1  Conv=0.13D-09     -V/T= 2.0032
 ExpMin= 2.97D-02 ExpMax= 6.67D+03 ExpMxC= 2.28D+02 IAcc=3 IRadAn=         5 AccDes= 0.00D+00
 HarFok:  IExCor=  205 AccDes= 0.00D+00 IRadAn=         5 IDoV=-2 UseB2=F ITyADJ=14
 ICtDFT= 12500011 ScaDFX=  1.000000  1.000000  1.000000  1.000000
 Range of M.O.s used for correlation:     2    59
 NBasis=    59 NAE=     5 NBE=     5 NFC=     1 NFV=     0
 NROrb=     58 NOA=     4 NOB=     4 NVA=    54 NVB=    54

 **** Warning!!: The largest alpha MO coefficient is  0.18866721D+02

 Disk-based method using ON**2 memory for  4 occupieds at a time.
 Permanent disk used for amplitudes=       87210 words.
 Estimated scratch disk usage=     1724982 words.
 Actual    scratch disk usage=     1724982 words.
 JobTyp=1 Pass  1:  I=   2 to   5 NPSUse=  8 ParTrn=T ParDer=T DoDerP=T.
 (rs|ai) integrals will be sorted in core.
 Spin components of T(2) and E(2):
     alpha-alpha T2 =       0.5837925391D-02 E2=     -0.1593371558D-01
     alpha-beta  T2 =       0.4613788293D-01 E2=     -0.1364311099D+00
     beta-beta   T2 =       0.5837925391D-02 E2=     -0.1593371558D-01
 ANorm=    0.1028500721D+01
 E2 =    -0.1682985411D+00 EUMP2 =    -0.40367726506022D+02
 G2DrvN: will do     6 centers at a time, making    1 passes.
 Calling FoFCou, ICntrl=  3107 FMM=F I1Cent=   0 AccDes= 0.00D+00.
 End of G2Drv F.D. properties file   721 does not exist.
 End of G2Drv F.D. properties file   722 does not exist.
 End of G2Drv F.D. properties file   788 does not exist.
          IDoAtm=11111
          Differentiating once with respect to electric field.
                with respect to dipole field.
          Differentiating once with respect to nuclear coordinates.
 Keep R1 ints in memory in symmetry-blocked form, NReq=2431714.
          There are    18 degrees of freedom in the 1st order CPHF.  IDoFFX=6 NUNeed=    18.
     15 vectors produced by pass  0 Test12= 1.50D-15 5.56D-09 XBig12= 3.89D+00 9.81D-01.
 AX will form    15 AO Fock derivatives at one time.
     15 vectors produced by pass  1 Test12= 1.50D-15 5.56D-09 XBig12= 6.22D-02 9.49D-02.
     15 vectors produced by pass  2 Test12= 1.50D-15 5.56D-09 XBig12= 3.71D-04 6.25D-03.
     15 vectors produced by pass  3 Test12= 1.50D-15 5.56D-09 XBig12= 1.77D-06 4.57D-04.
     15 vectors produced by pass  4 Test12= 1.50D-15 5.56D-09 XBig12= 9.52D-09 3.24D-05.
     15 vectors produced by pass  5 Test12= 1.50D-15 5.56D-09 XBig12= 2.51D-11 2.31D-06.
      8 vectors produced by pass  6 Test12= 1.50D-15 5.56D-09 XBig12= 8.23D-14 1.09D-07.
      3 vectors produced by pass  7 Test12= 1.50D-15 5.56D-09 XBig12= 2.31D-16 6.61D-09.
 InvSVY:  IOpt=1 It=  1 EMax= 5.55D-16
 Solved reduced A of dimension   101 with    15 vectors.
 End of Minotr F.D. properties file   721 does not exist.
 End of Minotr F.D. properties file   722 does not exist.
 End of Minotr F.D. properties file   788 does not exist.
 MDV=   131072000.
 Form MO integral derivatives with frozen-active canonical formalism.
 Discarding MO integrals.
 Reordered first order wavefunction length =       145800
 In DefCFB: NBatch=  1 ICI=  5 ICA= 54 LFMax= 27
            Large arrays: LIAPS=     3886920 LIARS=     2882250 words.
 Semi-Direct transformation.
 ModeAB=           4 MOrb=             5 LenV=     130844838
 LASXX=       476335 LTotXX=      476335 LenRXX=      976735
 LTotAB=      500400 MaxLAS=      438370 LenRXY=           0
 NonZer=     1453070 LenScr=     2906112 LnRSAI=      438370
 LnScr1=     1314816 LExtra=           0 Total=      5636033
 MaxDsk=          -1 SrtSym=           T ITran=            4
 JobTyp=0 Pass  1:  I=   1 to   5.
 (rs|ai) integrals will be sorted in core.
 Spin components of T(2) and E(2):
     alpha-alpha T2 =       0.5837925391D-02 E2=     -0.1593371558D-01
     alpha-beta  T2 =       0.4613788293D-01 E2=     -0.1364311099D+00
     beta-beta   T2 =       0.5837925391D-02 E2=     -0.1593371558D-01
 ANorm=    0.1454519669D+01
 E2 =    -0.1682985411D+00 EUMP2 =    -0.40367726506022D+02
          IDoAtm=11111
          Differentiating once with respect to electric field.
                with respect to dipole field.
          Differentiating once with respect to nuclear coordinates.
          There are     1 degrees of freedom in the 1st order CPHF.  IDoFFX=0 NUNeed=     1.
 LinEq1:  Iter=  0 NonCon=     1 RMS=3.80D-03 Max=1.53D-02 NDo=     1
 LinEq1:  Iter=  1 NonCon=     1 RMS=8.57D-04 Max=3.75D-03 NDo=     1
 LinEq1:  Iter=  2 NonCon=     1 RMS=2.32D-04 Max=1.68D-03 NDo=     1
 LinEq1:  Iter=  3 NonCon=     1 RMS=1.57D-05 Max=1.09D-04 NDo=     1
 LinEq1:  Iter=  4 NonCon=     1 RMS=8.30D-07 Max=6.54D-06 NDo=     1
 LinEq1:  Iter=  5 NonCon=     1 RMS=4.53D-08 Max=2.69D-07 NDo=     1
[...]
 7,-0.01658851,-0.00007871,0.00966763,0.03253955,0.00398033,-0.01427104
 ,-0.00048242,-0.00004088,0.00857485,-0.00006902,-0.00316755,0.00147507
 ,-0.07149695,-0.00042079,0.07021587,0.01187548,-0.00001546,-0.02422951
 ,0.06167343,0.00079855,-0.04242183,-0.00639757,0.00383222,-0.00459944,
 -0.00143631,-0.00324089,0.00208590,0.00954498,-0.00247993,-0.00118570,
 -0.00009506,0.00630970,-0.00589514,0.00445691,-0.00225464,0.00230297,-
 0.00174669,-0.00239988,0.00230296,-0.00154104,-0.00006640,0.00501192,-
 0.00459943,0.00270694,-0.00313494,0.00270918,-0.00148181,0.00922570,-0
 .00180898,-0.00255911,-0.00175558,0.00651720,-0.00004694,-0.00471811,0
 .00007483,0.00430139,0.00002510,-0.00143964,0.00274997,0.00190755,0.00
 843661,0.00170803,-0.00086626,-0.00161604,-0.00158878,-0.00281797,-0.0
 0545576,0.00164932,-0.00378755,0.00116498,0.00172609,0.00191816,0.0013
 4032,0.00184021,0.00191815,0.00117874,0.00195499,-0.00372271,0.0013809
 2,-0.00717061,0.00367395,0.00002511,0.00303828,0.00005699,0.00263669,0
 .00083692,0.00806729,-0.00159540,0.00231201,-0.00180896,-0.00281797,-0
 .00112224,0.00038293,0.00175158,-0.00506496,-0.00669825,0.11729544,0.2
 8182469,0.53274981,0.14839637,0.19906787,0.01202784,0.00203725,-0.0056
 2319,-0.00885902,-0.00193272,-0.00561966,-0.00636102,-0.01167225,0.002
 45590,0.00158635,-0.01405268,-0.01867961,-0.01765125,0.01234209,0.0164
 9728,0.02543719,-0.02266952,-0.01948478,-0.00528960,-0.00062865,-0.000
 22469,0.00035181,0.03015553,-0.01287935,-0.00636102,-0.00139457,0.0009
 2922,-0.00023127,-0.00056799,0.01636923,0.00158635,-0.00009594,0.00094
 453,0.00705554,0.00289459,0.00106563,-0.00178009,0.00096092,-0.0032001
 0,-0.00665109,-0.00530355,0.03752983,-0.01436835,-0.00050292,0.0005378
 4,-0.00043753,-0.00219296,0.00388350,-0.00032432,0.00359831,0.02997994
 ,-0.08481215,0.02117644,-0.00075796,0.00050692,-0.00051751,-0.00074111
 ,0.00050691,-0.00054136,-0.03781845,0.08847260,-0.01436835,0.02650933,
 0.00488890,-0.00092375,0.00392978,-0.00192274,0.00016190,-0.00080675,-
 0.00023270,0.01160233,-0.02671320,-0.00463201,-0.09135963,-0.29424655,
 -0.11987940,0.00102704,0.00285061,0.00179631,-0.00466441,-0.00830260,-
 0.00343524,0.00440111,0.00933757,0.00352788,0.09059588,-0.29330562,-0.
 43521563,-0.20717748,0.00299603,0.00449903,0.00326782,0.00408135,0.004
 49903,0.00173131,-0.00413273,-0.00467428,-0.00291916,0.29036097,0.4308
 9186,-0.11987940,-0.20784212,-0.00632103,-0.00545390,-0.00982043,-0.00
 408310,0.00381498,0.00596940,0.00160834,0.00352787,0.00659563,0.001898
 55,0.11799045,0.20509752,0.00689724,-0.11069641,0.45190129,-0.44666203
 ,-0.11834913,0.31920208,-0.02674339,-0.00197512,-0.00769369,0.00366990
 ,0.00269322,-0.00768752,0.00370692,-0.00991253,0.00352212,0.00006164,0
 .00823790,-0.02222289,0.02591573,-0.00721397,0.01938914,-0.03206230,0.
 02655062,-0.02351636,-0.00187971,-0.00011637,-0.00056564,0.00010228,-0
 .03272409,-0.01191210,0.00370693,-0.00393172,0.00129161,0.00049793,-0.
 00105829,0.01945115,0.00006163,-0.00644771,0.00017758,-0.00261007,-0.0
 0225927,0.00157107,0.00064868,0.00534797,-0.00316191,0.00335506,0.1110
 6255,-0.35346427,0.14428311,-0.00162366,0.00340221,-0.00229804,0.00660
 186,-0.00976071,0.00411448,-0.11228994,-0.35553933,0.51269513,-0.25113
 649,0.00308568,-0.00522845,0.00360692,0.00443091,-0.00522846,0.0017024
 5,0.34934426,-0.50712817,0.14428311,-0.24967076,0.00871273,0.00703194,
 -0.01156319,0.00595759,-0.00521551,0.00707185,-0.00226792,-0.14320088,
 0.24676057,-0.01070783,-0.02494164,-0.06722696,-0.02772417,0.00102194,
 0.00132883,0.00117184,-0.00031202,0.00093005,-0.00075547,-0.00375080,-
 0.00132152,-0.00289867,0.02798253,-0.07676234,-0.07344695,-0.05422135,
 -0.00020572,0.00096197,0.00028512,0.00019994,0.00096197,-0.00028919,0.
 01047851,0.00488995,0.00740154,0.06628960,0.06663305,-0.02772417,-0.04
 748601,-0.00527501,-0.00122860,0.00051550,-0.00045969,0.00164497,0.001
 08007,0.00087426,-0.00289867,-0.00093346,-0.00169458,0.03020647,0.0468
 2390,0.00655502,-0.60202656,-0.00950675,0.31229714,0.32169242,-0.00671
 513,-0.83025518,-0.08001552,0.00014837,-0.00272691,0.08184755,0.000148
 23,-0.09334342,0.00007280,-0.00006985,0.08837685,-0.01601236,0.0003427
 5,0.78174778,0.01380315,-0.00028599,-0.78016877,0.67952508,0.00037263,
 -0.28540860,-0.00407214,0.00001447,0.00443965,-0.67512451,0.00011816,-
 0.09334061,0.00011537,-0.00001932,0.00004761,0.00002220,-0.00029289,0.
 08837415,-0.27212275,0.00002526,0.02218478,-0.02905916,-0.00002563,0.0
 0465967,0.28228842,0.00002977,-0.02317443,-0.00021247,0.04406528,-0.01
 863754,0.00114961,0.00005508,-0.00107855,-0.00025705,-0.01205655,0.009
 39232,-0.00125321,0.03334481,-0.06902063,0.02355291,-0.00161054,0.0025
 2677,-0.00019793,-0.00072493,0.00252671,-0.00145169,-0.03144297,0.0646
 9004,-0.01863774,0.03112569,0.01300912,0.00889363,-0.01281248,-0.00320
 587,-0.00057965,0.00433479,-0.00179916,0.01091801,-0.02220953,-0.00899
 872,0.00272946,-0.03507952,-0.01491937,0.00109050,-0.00014793,-0.00115
 190,-0.00007138,0.01225060,0.00950118,0.00057312,0.00043363,-0.0005942
 4,-0.00432169,-0.02410446,-0.05659248,-0.01702594,0.00155134,0.0023922
 0,0.00011897,0.00063072,0.00239214,0.00142229,-0.00062083,-0.00072289,
 -0.00043847,0.02254323,0.05253103,-0.01491957,-0.02477857,0.01331351,0
 .00908930,0.01305130,-0.00303280,-0.00073982,-0.00450213,-0.00187086,-
 0.00059424,0.00030624,0.00099463,0.00716433,0.01592316,-0.00940447,0.8
 6141836,0.00016627,-0.00000523,-0.30553307,-0.00023509,-0.86139408,-0.
 10533198,0.00001425,0.00324583,0.09505413,0.00001425,-0.09264185,0.000
 00764,0.00000987,0.08897774,0.01578315,0.00000715,0.81773911,-0.013545
 81,0.00002203,-0.80361484,-0.72061015,-0.00001151,0.27716680,0.0095173
 8,-0.00000159,-0.00337572,0.71175257,-0.00001196,0.09264509,-0.0000108
 8,0.00001170,0.,-0.00000246,-0.00002406,-0.08898080,0.28970366,-0.0000
 1104,0.00817933,-0.00337516,-0.00001185,-0.00951735,-0.27261704,-0.000
 00194,-0.00316844,-0.01762425,-0.00083384,0.01252001,0.00037584,-0.002
 38127,0.00057454,-0.00035161,0.01436165,-0.00685680,0.01711999,0.00939
 570,0.00000109,-0.01330277,-0.00085674,0.00185326,0.00093848,-0.000598
 09,-0.00185335,0.00112121,-0.00954143,-0.00000102,-0.00001736,0.001179
 00,0.01762397,0.00684791,-0.01439323,-0.00228403,-0.00058312,-0.002567
 23,0.00225990,-0.00607234,0.01350905,-0.01711981,-0.01785198,0.0006648
 3,0.01260044,0.00038462,0.00235873,0.00056384,-0.00030819,-0.01433733,
 -0.00685466,0.00048002,0.00160056,-0.00017508,0.01729553,-0.00956425,0
 .00000091,0.01354111,0.00082091,0.00181086,-0.00096520,0.00063525,-0.0
 0181094,-0.00109638,-0.00160511,0.00000001,0.00227241,0.00971320,-0.00
 000084,0.00006362,-0.00094002,0.01785166,0.00682724,0.01437541,-0.0023
 2289,-0.00059092,0.00258252,0.00224656,-0.00016541,-0.00226596,-0.0004
 8004,-0.00613453,-0.01375194,-0.01729530,-0.06632613,0.03898235,-0.205
 60838,-0.04488126,0.02753522,-0.03446818,-0.00306739,0.00053075,0.0042
 2638,0.00305951,0.00020027,0.00679864,-0.00345989,-0.00076419,-0.00016
 845,0.00445184,-0.00270266,0.01804928,-0.00384100,0.00326483,-0.018471
 44,0.01843252,-0.00236978,-0.00317305,-0.00052532,0.00005098,0.0000405
 4,-0.01849064,-0.00319387,0.00679916,0.00134541,0.00046489,-0.00020093
 ,-0.00011085,0.00282153,-0.00016867,-0.00339888,0.00140373,-0.00344371
 ,-0.00137550,0.00047521,-0.00005261,0.00380423,-0.00181165,0.00308153,
 0.02916762,-0.09511046,0.02664980,0.00022415,0.00060218,-0.00010694,0.
 00089073,-0.00124231,0.00076970,-0.02659719,-0.07733254,0.11176632,-0.
 05462380,0.00096445,-0.00340750,0.00069158,0.00097321,-0.00340763,0.00
 067579,0.08443003,-0.10097302,0.02664996,-0.06718165,0.01025895,0.0010
 0721,-0.00153179,0.00065786,-0.00034461,0.00107956,-0.00001360,-0.0247
 1039,0.05963800,-0.00906570,0.02179338,0.05796714,0.01717813,0.0003090
 6,-0.00008923,-0.00054444,-0.00030729,0.00114975,0.00020045,-0.0036853
 0,-0.00903515,-0.00260218,-0.01810986,0.04134379,0.08024425,0.02920306
 ,-0.00119589,-0.00302176,-0.00114290,-0.00147594,-0.00302193,-0.000743
 09,0.01132055,-0.00397817,0.00799588,-0.04999251,-0.07022240,0.0171783
 3,0.04094536,0.00960366,-0.00001708,0.00125164,-0.00018309,-0.00032711
 ,-0.00050248,0.00042839,-0.00260217,-0.00638158,-0.00183751,-0.0142319
 7,-0.03531295,-0.00801145,-0.14249427,0.01893230,-0.11501690,0.0642646
 1,0.01336500,-0.18798915,-0.02415633,-0.00630649,-0.03242300,0.0298722
 1,-0.00589311,-0.00676080,-0.00536206,0.00615536,0.01097081,-0.0196782
 3,-0.00149136,0.15583116,0.02308932,0.00391712,-0.15057624,0.11933301,
 -0.00351801,-0.07056592,-0.00172094,-0.00035670,-0.00210921,-0.1158764
 8,-0.00702869,-0.00675852,-0.00376097,-0.00038855,-0.00119660,-0.00024
 031,0.00575397,0.01096960,-0.08331101,-0.00544483,0.01235510,-0.005514
 94,-0.00028565,0.00099005,0.07477792,0.00449042,-0.00483087,0.02211779
 ,-0.04870966,0.02213009,-0.00179410,0.00336911,-0.00028774,-0.00039296
 ,-0.00158854,0.00614060,-0.01860380,-0.04961502,0.06837678,-0.03503952
 ,0.00151745,-0.00175657,0.00277170,0.00311748,-0.00175733,0.00050375,0
 .04619178,-0.06472289,0.02212992,-0.03439994,0.00639350,0.00663749,-0.
 00288011,-0.00246265,-0.00078459,0.00413804,-0.00386933,-0.02654970,0.
 03262039,0.00024663,0.02519980,0.03960186,0.01659422,-0.00220084,-0.00
 327465,-0.00101414,-0.00134263,0.00325180,0.00790742,-0.00132693,-0.00
 121169,-0.00143312,-0.02032940,0.04360453,0.06015944,0.03079755,-0.000
 97777,-0.00125684,-0.00495715,-0.00499674,-0.00125715,0.00073632,0.000
 73730,-0.00013999,0.00052161,-0.03836732,-0.05750545,0.01659471,0.0279
 7113,0.01340939,0.00821113,0.00461070,-0.00378233,-0.00131820,-0.00462
 718,-0.00464496,-0.00143325,-0.00085632,-0.00030815,-0.02205439,-0.027
 09833,-0.00467395,-0.29043181,0.00940675,0.06475854,0.08669075,0.00664
 476,-0.35190391,-0.01107981,-0.00196679,0.01167571,0.01723100,-0.00168
 428,-0.06413622,0.00630106,0.00251392,0.06445864,0.01020272,0.00353438
 ,0.31130043,-0.00756432,-0.00445003,-0.29407097,0.28218044,0.00267368,
 -0.09381115,-0.00705011,-0.00040429,0.00213007,-0.26405835,0.00537557,
 -0.06413630,-0.00369390,-0.00118809,0.00395089,-0.00000745,-0.00335369
 ,0.06445900,-0.09233867,-0.00303524,0.01804937,-0.00559710,-0.00111727
 ,-0.00582114,0.09220629,0.00385693,-0.01278100,0.00850805,0.00256533,-
 0.00155519,0.00084724,-0.00197070,-0.00257351,-0.00545084,-0.01199583,
 0.00263077,-0.00232778,-0.01527353,0.04559715,-0.01078819,0.00099953,-
 0.00278123,0.00235259,0.00255045,-0.00278141,0.00015365,0.01125373,-0.
 03895960,-0.00155488,0.00181186,0.00960708,0.00039798,-0.01202898,-0.0
 0546889,-0.00034105,0.00216372,0.00082427,0.00202492,0.00794966,-0.003
 76153,0.01082313,-0.01267897,-0.00300012,0.00005167,0.00154534,-0.0021
 9495,-0.00562114,0.01116203,0.00309871,-0.00157666,0.00046981,-0.00052
 697,-0.00367700,0.00217549,0.01791683,0.00153627,-0.00035858,-0.001492
 09,-0.00142949,-0.00146615,-0.00149219,0.00014192,0.00014746,-0.001074
 90,0.00010373,-0.00049822,-0.01385765,-0.00299992,-0.00895576,0.012947
 03,0.00108773,0.01129522,-0.00593943,-0.00018415,-0.00231931,-0.000271
 51,-0.00052699,0.00033229,-0.00120094,0.00262333,-0.00035243,-0.005535
 16,-0.21533226,0.01940784,0.00946683,0.05209864,0.01371485,-0.25227667
 ,-0.00826274,0.00194958,-0.00455839,0.00912594,0.00147046,-0.03811738,
 0.00720820,-0.00321536,0.03729900,0.00633834,0.00031257,0.21308483,0.0
 0743194,-0.00415080,-0.20414327,0.18891143,0.00094969,-0.06359485,-0.0
 0168939,0.00018784,-0.00021920,-0.17562572,0.00728973,-0.03812140,-0.0
 0102394,0.00040673,-0.00257610,0.00005404,-0.00499032,0.03730382,-0.07
 449101,0.00173302,0.01590459,-0.00476456,0.00036528,0.00007658,0.07296
 141,-0.00164234,-0.01937327,0.02395363,-0.01619120,0.01390339,-0.00032
 960,0.00176243,-0.00807657,-0.00645872,-0.00967405,0.00403305,-0.01498
 558,-0.03213376,0.05241731,-0.02269677,-0.00008291,0.00156527,0.007166
 07,0.00672513,0.00156449,-0.00247554,0.02405315,-0.05124532,0.01390341
 ,-0.01143582,0.01409031,0.00186043,-0.01089004,-0.00502285,-0.00590328
 ,0.00530175,0.00110017,-0.00984279,0.01698988,-0.00800052,0.01072994,-
 0.00611590,0.00215121,0.00115578,-0.00020537,-0.00547450,-0.00513760,0
 .00696791,0.00226112,-0.00217973,0.00143839,-0.00001778,-0.00456839,0.
 00396574,0.01435464,0.00279766,0.00094197,0.00182922,-0.00338187,-0.00
 287234,0.00182918,0.00201958,0.00004966,-0.00430176,0.00003423,-0.0020
 8503,-0.01371127,0.00215062,-0.00432462,0.00919693,0.00003059,0.007467
 37,-0.00399529,-0.00324407,-0.00268950,0.00229193,-0.00001709,0.001016
 36,-0.00216711,0.00107996,-0.00146961,-0.00532647,-0.26746184,0.000713
 25,0.02772375,0.10982436,0.00050365,-0.34535729,-0.03763980,0.00107968
 ,0.03444364,0.04647717,0.00125135,-0.01112110,-0.00187046,-0.00149618,
 0.01008524,-0.01095130,-0.00217456,0.32234407,-0.01916629,0.00142258,-
 0.30211235,0.28952526,-0.00168857,-0.12699126,-0.00780129,0.00027368,0
 .02745590,-0.27524066,-0.00134449,-0.01112059,0.00180475,0.00066511,0.
 00080177,0.00005440,0.00084057,0.01008504,-0.08159657,0.00174459,-0.00
 481510,-0.02742388,0.00060868,-0.00781363,0.09494299,-0.00188571,0.019
 60499,0.00811720,0.00120851,-0.00888928,-0.00055784,-0.00029750,0.0012
 9123,-0.00303545,-0.00179307,0.00750609,-0.00623348,-0.00302085,-0.001
 58262,-0.00213393,-0.00022271,-0.00002578,0.00259653,0.00237207,-0.000
 02591,-0.00107887,0.00090708,0.00033464,-0.00888919,0.00085364,0.01442
 113,0.00662788,-0.00179707,-0.00615455,0.00216935,0.00032030,-0.003679
 64,-0.00079811,0.00064110,-0.00566580,0.00745917,-0.00131288,-0.008387
 46,-0.00047823,0.00026865,0.00137046,-0.00344787,0.00163188,0.00657138
 ,0.00170956,-0.00003559,0.00089007,-0.00524264,0.00240075,-0.00389944,
 0.00169599,-0.00002591,0.00025987,-0.00189895,-0.00179775,0.00025969,0
 .00061131,-0.00002502,0.00129967,-0.00001797,-0.00055207,0.00208020,-0
 .00838730,-0.00092731,0.01340719,0.00551865,0.00163626,-0.00626354,0.0
 0242302,-0.00029374,-0.00329663,0.00089008,-0.00002484,0.00107886,-0.0
 0044445,-0.00039038,-0.00492588,0.05496205,0.54582096,0.75005036,0.223
 46199,0.38554247,-0.10353430,-0.00258636,-0.00297492,0.00215270,0.0013
 5331,-0.00302033,-0.00608979,0.00394134,0.00073815,0.00193872,-0.00358
 872,-0.00598919,0.00894996,0.00117344,0.00121767,-0.00849115,0.0072171
 5,-0.00663914,-0.00706512,-0.00022362,-0.00001619,-0.00009658,-0.00665
 652,0.00270507,-0.00608921,-0.00416395,-0.00047103,0.00061879,0.000149
 81,0.00139434,0.00193848,-0.00132400,-0.00080160,-0.00084666,-0.000725
 28,-0.00049399,0.00006712,0.00401613,0.00028858,-0.00047845,0.00403406
 ,0.00622590,-0.00024406,0.00054061,0.00024624,0.00001175,-0.00013725,-
 0.00025493,0.00000342,-0.00716971,-0.00319850,-0.02595135,-0.00225896,
 0.00036679,-0.00012481,-0.00016602,-0.00003485,-0.00012492,0.00039919,
 -0.00384933,0.02434687,-0.00024392,0.00439767,0.00420306,-0.00023592,-
 0.00035789,-0.00014045,0.00025093,0.00035168,0.00053258,-0.00175275,-0
 .00271847,-0.00592364,-0.06362690,-0.54243280,-0.21830552,0.00091606,0
 .00205213,0.00250012,-0.00019976,-0.00337345,-0.00197027,0.00273229,0.
 00671589,0.00198166,0.06017832,-0.54230719,-0.71192003,-0.38306090,0.0
 0234101,0.00365709,0.00478772,0.00529584,0.00365687,0.00060782,-0.0023
 6788,0.00185422,-0.00167299,0.53703823,0.70275185,-0.21830534,-0.38314
 934,0.09122794,-0.00236494,-0.00430713,-0.00038548,0.00289464,0.003373
 88,0.00072541,0.00198164,0.00474425,0.00132845,0.21579401,0.37933834,-
 0.09289633,0.12852596,-0.76969189,1.00948589,0.34825407,-0.54367467,-0
 .11849386,-0.00450301,0.00344533,0.00320975,0.00093063,0.00340963,-0.0
 0836744,-0.00464845,-0.00024906,0.00121315,-0.00594239,0.00915465,0.00
 470301,0.00083367,-0.00251296,-0.00355883,0.00282220,0.00977969,-0.008
 53987,-0.00004063,0.00006004,0.00000985,-0.00253672,-0.00324131,-0.008
 36683,0.00476737,0.00025171,0.00119616,-0.00002564,-0.00245166,0.00121
 291,0.00061204,0.00018692,-0.00261517,-0.00061680,0.00024576,0.0001739
 1,0.00206525,0.00060536,-0.00008868,-0.11129997,0.78611433,-0.32560309
 ,0.00231598,-0.00342395,0.00444533,-0.00095528,0.00425641,-0.00240859,
 0.10941595,0.78611764,-0.98102487,0.55527723,-0.00281079,0.00559901,-0
 .00664871,-0.00720685,0.00559881,-0.00042851,-0.77809799,0.96763799,-0
 .32560298,0.55527466,0.11966837,-0.00356778,0.00573054,-0.00167544,0.0
 0560442,-0.00514260,0.00159088,0.32295509,-0.54961174,-0.11967537,-0.0
 1554517,-0.02964747,-0.01732085,0.00129704,0.00020334,0.00065355,0.000
 71043,0.00118485,0.00034811,0.00052332,0.00199800,0.00061124,0.0130143
 8,-0.01659408,-0.01172676,-0.01172148,-0.00063719,0.00035911,0.0000326
 6,-0.00018122,0.00035894,-0.00060953,-0.00884880,0.00218906,-0.0062508
 6,0.02626128,0.00881965,-0.01732074,-0.02094156,-0.00326235,0.00014116
 ,0.00118511,0.00035734,0.00086035,-0.00020449,0.00093906,0.00061127,0.
 00141174,0.00009156,0.01570796,0.01854921,0.00187438,1.00092271,-0.002
 71826,-0.60044592,-0.66050152,-0.00192040,1.46959482,0.30016082,-0.000
 13724,0.03066117,-0.30937795,-0.00013339,0.31715275,-0.00086697,0.0001
 3511,-0.32029269,0.05179452,-0.00084031,-1.53349482,-0.04944941,0.0010
 7095,1.51803912,-1.30252497,-0.00083785,0.62023440,0.01129881,-0.00006
 075,-0.00993760,1.28258820,-0.00086150,0.31713204,0.00016444,0.0000358
 7,0.00448087,-0.00007745,0.00105441,-0.32027198,0.59910003,0.00015187,
 0.06927627,0.03008828,0.00005970,0.00415264,-0.61408679,-0.00023067,-0
 .07401073,0.00098407,-0.00001741,0.00413423,-0.00108453,0.00024308,0.0
 0379477,0.00432704,0.00591617,-0.00744181,-0.00485711,0.00910799,-0.01
 969485,0.00643375,0.00188742,-0.00073415,-0.00514772,-0.00422061,-0.00
 073406,0.00349927,-0.00641320,0.01863786,0.00413472,-0.00001297,-0.001
 95053,-0.00552281,0.00619154,0.00562151,0.00187519,-0.00184055,0.00020
 931,0.00068773,-0.00452977,-0.00534438,0.00045737,0.00371076,0.0054717
 2,-0.00099715,-0.00018405,0.00379771,0.00431092,-0.00614496,-0.0076597
 1,0.00063054,-0.00036160,-0.00117483,-0.00440169,-0.00539484,-0.014144
 03,-0.00381082,-0.00192117,-0.00060678,0.00499453,0.00406480,-0.000606
 88,-0.00348016,0.00027136,0.00252520,0.00019175,0.00297985,0.01283248,
 0.00547225,0.00262181,-0.00342573,-0.00577724,-0.00645522,0.00568155,0
 .00191479,0.00198423,0.00037251,-0.00117492,-0.00025553,0.00146409,-0.
 00043488,0.00210470,-0.00409241,1.12070937,0.00003578,-0.69766218,-0.5
 6271047,0.00002566,1.51979653,0.35058661,-0.00003119,-0.04648195,-0.35
 237181,-0.00001166,0.34529542,-0.00016824,-0.00001894,-0.33988605,-0.0
 3631340,-0.00012362,-1.64670951,0.04994330,0.00013327,1.62896643,-1.44
 967830,-0.00012690,0.60222088,-0.00270412,-0.00000527,-0.01596617,1.43
 911143,-0.00016249,0.34531726,0.00004499,0.00000780,-0.00223002,-0.000
 00818,0.00011934,-0.33990798,0.59205102,0.00001171,0.15349014,0.001088
 67,0.00001021,0.00257599,-0.58547505,-0.00006242,-0.16244749,-0.010831
 58,-0.01344537,0.00343512,0.00225032,0.00337308,0.00116477,0.00663395,
 0.00889286,-0.00384681,0.00106183,0.00196978,0.00346331,0.00139286,0.0
 0123493,-0.00160768,-0.00417249,-0.00351961,-0.00160762,0.00255798,0.0
 0075022,-0.00128583,0.00343581,-0.00949706,-0.01327537,-0.00229195,0.0
 0823878,0.00758829,-0.00039072,0.00042477,0.00320253,0.00058712,0.0005
 2967,0.00064722,-0.01078610,0.01356768,0.00353642,0.00223900,-0.003337
 21,0.00117150,0.00663704,-0.00885752,-0.00381783,0.00088547,-0.0004353
 2,-0.00134025,0.00102459,-0.00183141,0.00358618,-0.00129526,-0.0011925
 9,-0.00157167,0.00417102,0.00353243,-0.00157163,-0.00251748,0.00042921
 ,0.00103782,0.00030383,-0.00093764,-0.00148070,0.00353703,0.00958331,-
 0.01330179,-0.00225806,-0.00821403,0.00757879,-0.00038893,-0.00039916,
 0.00317883,-0.00134020,-0.00030802,0.00183732,0.00045016,-0.00066211,0
 .00070685\\@


 THE MORE ACCURATE THE CALCULATIONS BECOME, THE MORE THE CONCEPTS
 TEND TO VANISH INTO THIN AIR.
     -- R.S. MULLIKEN, J.C.P. 43,S2(1965)
 Job cpu time:       0 days  0 hours  9 minutes 44.5 seconds.
 File lengths (MBytes):  RWF=    103 Int=      0 D2E=      0 Chk=     39 Scr=      1
 Normal termination of Gaussian 09 at Sun Oct 11 17:09:39 2020.
