Deuterated/tritiated methane freq
Freq      RMP2-FC                                                     Aug-CC-pVDZ
Number of atoms                            I                5
Info1-9                                    I   N=           9
          27          27        1002           0           0         100
           6           2           1
Full Title                                 C   N=           3
Deuterated/tritiated methane freq
Route                                      C   N=           6
#MP2/aug-cc-pvdz #Density=current #Opt=VeryTight #Frequency=
Anharmonic
Charge                                     I                0
Multiplicity                               I                1
Number of electrons                        I               10
Number of alpha electrons                  I                5
Number of beta electrons                   I                5
Number of basis functions                  I               59
Number of independent functions            I               59
Number of point charges in /Mol/           I                0
Number of translation vectors              I                0
Atomic numbers                             I   N=           5
           6           1           1           1           1
Nuclear charges                            R   N=           5
  6.00000000E+00  1.00000000E+00  1.00000000E+00  1.00000000E+00  1.00000000E+00
Current cartesian coordinates              R   N=          15
  0.00000000E+00  0.00000000E+00  0.00000000E+00  1.19129680E+00  1.37027512E+00
 -1.00486478E+00 -1.14582873E+00  9.89432593E-01  1.41939945E+00  1.20384287E+00
 -1.40500473E+00  9.39850655E-01 -1.24931093E+00 -9.54702991E-01 -1.35438532E+00
Number of symbols in /Mol/                 I                0
Force Field                                I                0
Atom Types                                 C   N=           5

Int Atom Types                             I   N=           5
           0           0           0           0           0
MM charges                                 R   N=           5
  0.00000000E+00  0.00000000E+00  0.00000000E+00  0.00000000E+00  0.00000000E+00
Integer atomic weights                     I   N=           5
          12           1           1           2           3
Real atomic weights                        R   N=           5
  1.20000000E+01  1.00782504E+00  1.00782504E+00  2.01410179E+00  3.01604929E+00
Atom fragment info                         I   N=           5
           0           0           0           0           0
Atom residue num                           I   N=           5
           0           0           0           0           0
Nuclear spins                              I   N=           5
           0           1           1           2           1
Nuclear ZEff                               R   N=           5
 -3.60000000E+00 -1.00000000E+00 -1.00000000E+00 -1.00000000E+00 -1.00000000E+00
Nuclear ZNuc                               R   N=           5
  6.00000000E+00  1.00000000E+00  1.00000000E+00  1.00000000E+00  1.00000000E+00
Nuclear QMom                               R   N=           5
  0.00000000E+00  0.00000000E+00  0.00000000E+00  2.86000000E-01  0.00000000E+00
Nuclear GFac                               R   N=           5
  0.00000000E+00  2.79284600E+00  2.79284600E+00  8.57438000E-01  2.97896000E+00
MicOpt                                     I   N=           5
          -1          -1          -1          -1          -1
Number of residues                         I                0
Number of secondary structures             I                0
Redundant internal dimensions              I   N=           4
          14           4           6           4
Redundant internal coordinate indices      I   N=          56
           1           2           0           0           1           3
           0           0           1           4           0           0
           1           5           0           0           2           1
           3           0           2           1           4           0
           2           1           5           0           3           1
           4           0           3           1           5           0
           4           1           5           0           2           1
           4           3           2           1           5           3
           2           1           5           4           3           1
           5           4
Redundant internal coordinates             R   N=          14
  2.07523377E+00  2.07523375E+00  2.07523377E+00  2.07523377E+00  1.91063324E+00
  1.91063323E+00  1.91063324E+00  1.91063324E+00  1.91063323E+00  1.91063324E+00
  2.09439510E+00 -2.09439511E+00  2.09439510E+00 -2.09439510E+00
ZRed-IntVec                                I   N=          14
           0           0           0           0           0           0
           0           0           0           0           0           0
           0           0
ZRed-FPVec                                 R   N=          14
  0.00000000E+00  0.00000000E+00  0.00000000E+00  0.00000000E+00  0.00000000E+00
  0.00000000E+00  0.00000000E+00  0.00000000E+00  0.00000000E+00  0.00000000E+00
  0.00000000E+00  0.00000000E+00  0.00000000E+00  0.00000000E+00
ZRed-Constraint1                           R   N=          14
  2.07523377E+00  2.07523375E+00  2.07523377E+00  2.07523377E+00  1.91063324E+00
  1.91063323E+00  1.91063324E+00  1.91063323E+00  1.91063323E+00  1.91063324E+00
  2.09439510E+00 -2.09439511E+00  2.09439510E+00 -2.09439510E+00
ZRed-Constraint2                           R   N=          14
  2.07869874E+00  2.07869874E+00  2.07869874E+00  2.07869874E+00  1.91113553E+00
  1.91013067E+00  1.91013067E+00  1.91113553E+00  1.91113553E+00  1.91013067E+00
  2.09501001E+00 -2.09501001E+00  2.09316528E+00 -2.09501001E+00
SymInf integers                            I   N=          26
           1           1           1           1           1           0
           0           0           0           0           0           0
           0           0           0           0           0           0
           0           0           0           0           0           0
           0           0
RotTr to input orientation                 R   N=          12
 -3.82390366E-01  7.23891340E-01  5.74246407E-01  7.39485492E-01 -1.32877741E-01
  6.59927809E-01  5.54020592E-01  6.76996923E-01 -4.84495976E-01 -5.59604612E-04
 -7.26912974E-11  1.98166433E-04
Number of contracted shells                I               29
Number of primitive shells                 I               51
Pure/Cartesian d shells                    I                0
Pure/Cartesian f shells                    I                0
Highest angular momentum                   I                2
Largest degree of contraction              I                7
Shell types                                I   N=          29
           0           0           0           0           1           1
           1          -2          -2           0           0           0
           1           1           0           0           0           1
           1           0           0           0           1           1
           0           0           0           1           1
Number of primitives per shell             I   N=          29
           7           7           1           1           3           1
           1           1           1           3           1           1
           1           1           3           1           1           1
           1           3           1           1           1           1
           3           1           1           1           1
Shell to atom map                          I   N=          29
           1           1           1           1           1           1
           1           1           1           2           2           2
           2           2           3           3           3           3
           3           4           4           4           4           4
           5           5           5           5           5
Primitive exponents                        R   N=          51
  6.66500000E+03  1.00000000E+03  2.28000000E+02  6.47100000E+01  2.10600000E+01
  7.49500000E+00  2.79700000E+00  6.66500000E+03  2.28000000E+02  6.47100000E+01
  2.10600000E+01  7.49500000E+00  2.79700000E+00  5.21500000E-01  1.59600000E-01
  4.69000000E-02  9.43900000E+00  2.00200000E+00  5.45600000E-01  1.51700000E-01
  4.04100000E-02  5.50000000E-01  1.51000000E-01  1.30100000E+01  1.96200000E+00
  4.44600000E-01  1.22000000E-01  2.97400000E-02  7.27000000E-01  1.41000000E-01
  1.30100000E+01  1.96200000E+00  4.44600000E-01  1.22000000E-01  2.97400000E-02
  7.27000000E-01  1.41000000E-01  1.30100000E+01  1.96200000E+00  4.44600000E-01
  1.22000000E-01  2.97400000E-02  7.27000000E-01  1.41000000E-01  1.30100000E+01
  1.96200000E+00  4.44600000E-01  1.22000000E-01  2.97400000E-02  7.27000000E-01
  1.41000000E-01
Contraction coefficients                   R   N=          51
  6.93516317E-04  5.34150243E-03  2.71366714E-02  1.01992385E-01  2.75508636E-01
  4.51086433E-01  2.87565745E-01  7.73354740E-06  2.78072137E-04 -2.57875654E-03
 -8.95087684E-03 -1.06058855E-01 -1.31517686E-01  1.09948660E+00  1.00000000E+00
  1.00000000E+00  5.69792516E-02  3.13207212E-01  7.60376742E-01  1.00000000E+00
  1.00000000E+00  1.00000000E+00  1.00000000E+00  3.34987264E-02  2.34800801E-01
  8.13682958E-01  1.00000000E+00  1.00000000E+00  1.00000000E+00  1.00000000E+00
  3.34987264E-02  2.34800801E-01  8.13682958E-01  1.00000000E+00  1.00000000E+00
  1.00000000E+00  1.00000000E+00  3.34987264E-02  2.34800801E-01  8.13682958E-01
  1.00000000E+00  1.00000000E+00  1.00000000E+00  1.00000000E+00  3.34987264E-02
  2.34800801E-01  8.13682958E-01  1.00000000E+00  1.00000000E+00  1.00000000E+00
  1.00000000E+00
Coordinates of each shell                  R   N=          87
  0.00000000E+00  0.00000000E+00  0.00000000E+00  0.00000000E+00  0.00000000E+00
  0.00000000E+00  0.00000000E+00  0.00000000E+00  0.00000000E+00  0.00000000E+00
  0.00000000E+00  0.00000000E+00  0.00000000E+00  0.00000000E+00  0.00000000E+00
  0.00000000E+00  0.00000000E+00  0.00000000E+00  0.00000000E+00  0.00000000E+00
  0.00000000E+00  0.00000000E+00  0.00000000E+00  0.00000000E+00  0.00000000E+00
  0.00000000E+00  0.00000000E+00  1.19129680E+00  1.37027512E+00 -1.00486478E+00
  1.19129680E+00  1.37027512E+00 -1.00486478E+00  1.19129680E+00  1.37027512E+00
 -1.00486478E+00  1.19129680E+00  1.37027512E+00 -1.00486478E+00  1.19129680E+00
  1.37027512E+00 -1.00486478E+00 -1.14582873E+00  9.89432593E-01  1.41939945E+00
 -1.14582873E+00  9.89432593E-01  1.41939945E+00 -1.14582873E+00  9.89432593E-01
  1.41939945E+00 -1.14582873E+00  9.89432593E-01  1.41939945E+00 -1.14582873E+00
  9.89432593E-01  1.41939945E+00  1.20384287E+00 -1.40500473E+00  9.39850655E-01
  1.20384287E+00 -1.40500473E+00  9.39850655E-01  1.20384287E+00 -1.40500473E+00
  9.39850655E-01  1.20384287E+00 -1.40500473E+00  9.39850655E-01  1.20384287E+00
 -1.40500473E+00  9.39850655E-01 -1.24931093E+00 -9.54702991E-01 -1.35438532E+00
 -1.24931093E+00 -9.54702991E-01 -1.35438532E+00 -1.24931093E+00 -9.54702991E-01
 -1.35438532E+00 -1.24931093E+00 -9.54702991E-01 -1.35438532E+00 -1.24931093E+00
 -9.54702991E-01 -1.35438532E+00
Num ILSW                                   I              100
ILSW                                       I   N=         100
           0           0           0           1           2           0
           0           0           0           0           0          -1
           5           0           0           0           2           0
           0           0           1           0           1           0
           1           0           0           0           0           0
           0           0      100000           0          -1           0
           0           0           0           0           0           0
           0           0           0           1           1           0
           0 -2000000000           1           0           0           0
           0           0           4          52           0           0
           0           0           0           0           0           0
           0           0           0           0           4           1
           0           0           0           0           0           0
           0           0           0           0           0           0
           0           0           0           0           0           0
           0           0           0           0           0           0
           0           0           0           0
Num RLSW                                   I               52
RLSW                                       R   N=          52
  1.00000000E+00  1.00000000E+00  1.00000000E+00  1.00000000E+00  1.00000000E+00
  0.00000000E+00  0.00000000E+00  1.00000000E+00  0.00000000E+00  0.00000000E+00
  0.00000000E+00  0.00000000E+00  1.00000000E+00  0.00000000E+00  0.00000000E+00
  0.00000000E+00  0.00000000E+00  1.00000000E+00  0.00000000E+00  0.00000000E+00
  0.00000000E+00  0.00000000E+00  1.00000000E+00  0.00000000E+00  0.00000000E+00
  0.00000000E+00  0.00000000E+00  1.00000000E+00  0.00000000E+00  0.00000000E+00
  0.00000000E+00  0.00000000E+00  1.00000000E+00  0.00000000E+00  0.00000000E+00
  0.00000000E+00  0.00000000E+00  0.00000000E+00  1.00000000E+00  1.00000000E+00
  0.00000000E+00  1.00000000E+00  0.00000000E+00  0.00000000E+00  0.00000000E+00
  0.00000000E+00  0.00000000E+00  0.00000000E+00  0.00000000E+00  0.00000000E+00
  0.00000000E+00  0.00000000E+00
MxBond                                     I                4
NBond                                      I   N=           5
           4           1           1           1           1
IBond                                      I   N=          20
           2           3           4           5           1           0
           0           0           1           0           0           0
           1           0           0           0           1           0
           0           0
RBond                                      R   N=          20
  1.00000000E+00  1.00000000E+00  1.00000000E+00  1.00000000E+00  1.00000000E+00
  0.00000000E+00  0.00000000E+00  0.00000000E+00  1.00000000E+00  0.00000000E+00
  0.00000000E+00  0.00000000E+00  1.00000000E+00  0.00000000E+00  0.00000000E+00
  0.00000000E+00  1.00000000E+00  0.00000000E+00  0.00000000E+00  0.00000000E+00
Virial Ratio                               R      2.003244073397065E+00
SCF Energy                                 R     -4.019942795536726E+01
MP2 Energy                                 R     -4.036772650593026E+01
Total Energy                               R     -4.036772650593026E+01
Post-SCF wavefunction norm                 R      1.454519678229028E+00
RMS Force                                  R      9.396416821097086E-10
RMS Density                                R      1.685913006305027E-09
NImag                                      I                0
Job Status                                 I                1
Nuclear derivative order                   I                3
External E-field                           R   N=          35
  0.00000000E+00  0.00000000E+00  0.00000000E+00  0.00000000E+00  0.00000000E+00
  0.00000000E+00  0.00000000E+00  0.00000000E+00  0.00000000E+00  0.00000000E+00
  0.00000000E+00  0.00000000E+00  0.00000000E+00  0.00000000E+00  0.00000000E+00
  0.00000000E+00  0.00000000E+00  0.00000000E+00  0.00000000E+00  0.00000000E+00
  0.00000000E+00  0.00000000E+00  0.00000000E+00  0.00000000E+00  0.00000000E+00
  0.00000000E+00  0.00000000E+00  0.00000000E+00  0.00000000E+00  0.00000000E+00
  0.00000000E+00  0.00000000E+00  0.00000000E+00  0.00000000E+00  0.00000000E+00
IOpCl                                      I                0
IROHF                                      I                0
Alpha Orbital Energies                     R   N=          59
 -1.12196778E+01 -9.39955993E-01 -5.43480760E-01 -5.41631654E-01 -5.39779348E-01
  3.69205652E-02  6.36816256E-02  6.37738415E-02  6.38665124E-02  1.45906751E-01
  1.46019440E-01  1.46131165E-01  1.74124406E-01  2.97937601E-01  2.98834523E-01
  2.99709500E-01  3.05899057E-01  3.05901432E-01  4.15523190E-01  4.39893155E-01
  4.40246260E-01  4.40611433E-01  5.21040692E-01  5.21391854E-01  5.21744808E-01
  5.67084155E-01  6.05705851E-01  6.06328651E-01  6.06947325E-01  6.66404896E-01
  6.66617095E-01  6.66860635E-01  7.33089139E-01  7.33091305E-01  9.80962648E-01
  9.83321440E-01  9.85637149E-01  1.11616365E+00  1.34455072E+00  1.34630902E+00
  1.34805234E+00  1.73971528E+00  1.73972259E+00  1.88401709E+00  1.88521595E+00
  1.88642197E+00  1.98564618E+00  2.19231246E+00  2.19872405E+00  2.20454987E+00
  2.28181571E+00  2.28210012E+00  2.28220615E+00  2.62057238E+00  2.62061472E+00
  2.80400764E+00  2.90064508E+00  2.90965440E+00  2.92041380E+00
Alpha MO coefficients                      R   N=        3481
  9.97573955E-01  2.06707732E-02 -2.93027998E-02 -8.56979221E-03  8.84937801E-11
 -7.85323732E-11 -9.61771761E-11 -1.72863133E-10  1.52561583E-10  1.91303390E-10
 -2.29650003E-11  2.07969413E-11  2.23784866E-11  5.48290575E-12 -4.70569732E-11
  3.74511353E-11  3.40198482E-11 -3.07388288E-11  1.59049718E-11 -2.14558177E-11
  2.19391360E-11 -2.80804170E-11 -1.86640080E-11  4.24709810E-04  7.32058715E-03
  8.09370176E-04  1.70527196E-04  1.96146914E-04 -1.43840541E-04 -1.28790435E-03
 -1.48139684E-03  1.08635373E-03  4.24709877E-04  7.32058662E-03  8.09370134E-04
 -1.64018657E-04  1.41631472E-04  2.03178703E-04  1.23874898E-03 -1.06967000E-03
 -1.53450474E-03  4.24709807E-04  7.32058718E-03  8.09370182E-04  1.72323096E-04
 -2.01118252E-04  1.34534158E-04 -1.30146784E-03  1.51894282E-03 -1.01606734E-03
  4.24709810E-04  7.32058715E-03  8.09370176E-04 -1.78831588E-04 -1.36660175E-04
 -1.93872373E-04  1.35062312E-03  1.03212410E-03  1.46421845E-03 -1.86347848E-01
  3.73001132E-01  1.43734833E-01  4.44627254E-03 -3.43519938E-09  2.84908831E-09
  4.82885360E-09  9.99104899E-11  1.47490991E-10 -1.37403193E-09 -3.63288229E-10
  3.55814075E-10  2.14401930E-10  2.85610659E-10 -1.15036696E-09  9.72321230E-10
  3.45607230E-10 -7.73159752E-10  9.60037092E-11  5.13711409E-10 -3.24680829E-10
 -8.52934062E-10  5.49428117E-10  1.85762527E-01  4.49578451E-02  5.97311208E-04
 -1.47134295E-02 -1.69239489E-02  1.24108511E-02 -8.62765458E-03 -9.92385745E-03
  7.27746983E-03  1.85762537E-01  4.49578498E-02  5.97309766E-04  1.41518643E-02
 -1.22202520E-02 -1.75306727E-02  8.29836595E-03 -7.16570782E-03 -1.02796307E-02
  1.85762527E-01  4.49578475E-02  5.97311469E-04 -1.48683831E-02  1.73528865E-02
 -1.16078765E-02 -8.71851657E-03  1.01753787E-02 -6.80662135E-03  1.85762527E-01
  4.49578452E-02  5.97311214E-04  1.54299482E-02  1.17913145E-02  1.67276980E-02
  9.04780583E-03  6.91418617E-03  9.80878063E-03  1.44933453E-09 -1.91515943E-09
  5.53857476E-09 -4.07665862E-09 -2.86230400E-01  1.64943477E-01  2.67410083E-01
 -7.75976056E-02  4.47164932E-02  7.24953858E-02  7.67466114E-03 -4.42260913E-03
 -7.17003367E-03  6.36545531E-03 -1.50177693E-02  1.85120535E-02  2.49868182E-03
 -1.18080751E-02 -6.20123645E-03  1.46303333E-02 -1.80344709E-02 -2.43421961E-03
  1.15034446E-02 -1.71773799E-01 -1.39392509E-01 -1.34982807E-02 -2.46806821E-04
  1.52678217E-02  1.02556138E-03  1.68389871E-02  1.25895242E-02 -1.45600826E-02
  3.89829477E-01  3.16342228E-01  3.06334693E-02  1.01156779E-02 -1.13223937E-02
 -1.52737161E-02  3.21119542E-02 -2.66010258E-02 -3.85831170E-02 -1.45502102E-01
 -1.18073322E-01 -1.14338055E-02 -1.50856884E-03 -3.56141860E-03  1.42699799E-02
  1.49793125E-02 -1.51623487E-02  4.96048327E-03 -7.25535842E-02 -5.88764159E-02
 -5.70138429E-03 -1.28882507E-02  2.22527214E-03  4.20840067E-03 -1.79287176E-03
 -6.63351186E-03 -9.86898683E-03 -3.23814316E-10  5.48851267E-10  3.69332857E-10
  7.43940652E-10 -3.13866930E-01 -1.33746662E-01 -2.53459475E-01 -8.50899166E-02
 -3.62589751E-02 -6.87133451E-02  8.41566967E-03  3.58612991E-03  6.79597262E-03
  5.14715160E-03  1.45924592E-02  1.79586036E-02  4.13097547E-03  1.32443618E-02
 -5.01436384E-03 -1.42159975E-02 -1.74953015E-02 -4.02440271E-03 -1.29026789E-02
 -1.35423715E-01 -1.09894833E-01 -1.06418274E-02 -2.97046254E-03  3.73559355E-03
 -1.38023683E-02  1.44856557E-02  1.35440993E-02 -5.10973156E-03 -5.93008028E-02
 -4.81219350E-02 -4.65995744E-03 -1.27864122E-02 -1.69702097E-03 -4.37277324E-03
  1.82086339E-05  5.53712511E-03  8.78827707E-03 -1.91681992E-01 -1.55547798E-01
 -1.50626994E-02  1.79238937E-06 -1.57389717E-02 -2.63603438E-04  1.88663772E-02
 -1.51589022E-02  1.48446642E-02  3.86406511E-01  3.13564568E-01  3.03644843E-02
  1.07899447E-02  1.15846277E-02  1.44292072E-02  3.47667222E-02  2.51125661E-02
  3.64999770E-02 -8.04682356E-11  2.87630074E-10  2.12513795E-09 -2.11404360E-11
  1.42140960E-02  3.68168178E-01 -2.11878444E-01  3.85346844E-03  9.98110919E-02
 -5.74406473E-02 -3.81120381E-04 -9.87163882E-03  5.68106550E-03  5.53554975E-04
 -1.77190908E-02 -1.19999219E-03 -3.43946051E-05  2.09453767E-02 -5.39274404E-04
  1.72619675E-02  1.16903460E-03  3.35070026E-05 -2.04050206E-02  3.28763272E-01
  2.66787726E-01  2.58347787E-02 -1.63203419E-02 -7.70057119E-03  7.47580162E-03
 -2.49083662E-02 -3.34769461E-02  2.37524890E-02  2.11541840E-02  1.71663830E-02
  1.66233162E-03  1.48504856E-03  1.06901410E-02 -7.95329624E-03  1.33448814E-03
 -6.37140493E-03  1.01198357E-03 -3.13078683E-01 -2.54059859E-01 -2.46022572E-02
  1.65831895E-02 -7.24594267E-03  5.92961464E-03  2.35872051E-02 -3.28068844E-02
  2.14736058E-02 -3.68387731E-02 -2.98942527E-02 -2.89485339E-03 -1.52303992E-03
  1.00805161E-02 -8.80387726E-03 -3.09904682E-03 -7.26991433E-03 -2.41662721E-04
 -3.87638126E-02  2.96912065E-02  1.01388423E+00  3.47021809E+00 -1.86756876E-09
  1.63776380E-09  2.14447444E-09 -2.98466665E-09  2.50621898E-09  3.92688822E-09
 -4.59943410E-08  3.98276852E-08  5.54244938E-08  5.19766148E-11 -2.63062235E-10
  2.16074260E-10  1.20736916E-10 -1.86545584E-10 -8.08323244E-10  1.00693384E-09
 -1.03555411E-09  1.55900852E-09  1.03394914E-09  5.15047912E-03 -5.24166438E-01
 -8.79398726E-01 -4.87344827E-04 -5.60562478E-04  4.11077762E-04  6.10623763E-02
  7.02362746E-02 -5.15064192E-02  5.15048187E-03 -5.24166432E-01 -8.79399158E-01
  4.68744821E-04 -4.04764979E-04 -5.80659289E-04 -5.87318149E-02  5.07154081E-02
  7.27542463E-02  5.15047905E-03 -5.24166438E-01 -8.79398716E-01 -4.92477229E-04
  5.74769982E-04 -3.84481154E-04  6.17054506E-02 -7.20164162E-02  4.81739800E-02
  5.15047912E-03 -5.24166438E-01 -8.79398727E-01  5.11077580E-04  3.90557176E-04
  5.54062270E-04 -6.40360052E-02 -4.89352724E-02 -6.94218153E-02 -3.16079275E-09
  1.50248929E-09  9.96806241E-08  2.73284753E-07  4.23790158E-02 -3.05287967E-02
 -4.73255062E-02  7.77301017E-02 -5.59948420E-02 -8.68027770E-02  9.01009935E-01
 -6.49065303E-01 -1.00617605E+00 -6.09316505E-05  1.72944772E-04 -1.73731525E-04
 -2.18342799E-05  1.30313241E-04  6.42171382E-03 -1.82270094E-02  1.83099363E-02
  2.30116273E-03 -1.37339830E-02  1.08306255E-02 -7.93625475E-03 -1.90829184E+00
 -2.71787326E-04 -6.41539125E-03 -6.62095480E-04 -1.94903735E-02  6.44189282E-02
  2.91234112E-02 -2.81203225E-02  2.06052787E-02  4.95463338E+00 -5.56350487E-03
  5.27109581E-03  7.28993846E-03  2.08335709E-02 -2.46344708E-02 -3.14726838E-02
  9.52479747E-03 -6.97939677E-03 -1.67821270E+00  1.21595284E-04  1.31549951E-03
 -6.09532452E-03 -2.24880294E-02  5.50796088E-03  7.05257259E-02  7.76489944E-03
 -5.68981090E-03 -1.36812912E+00  5.91966500E-03 -3.19578521E-04 -7.62527352E-04
 -6.66705063E-02  1.79675890E-02  2.98887219E-02  1.59790711E-10 -1.08296914E-10
 -4.75971231E-09 -1.14212246E-08  5.61680266E-02  2.72303943E-02  3.27314943E-02
  1.03021415E-01  4.99450269E-02  6.00349498E-02  1.19417469E+00  5.78938752E-01
  6.95896294E-01 -5.82286565E-05 -1.58617187E-04 -2.03751868E-04 -4.48159101E-05
 -9.58663085E-05  6.13683365E-03  1.67169803E-02  2.14738275E-02  4.72325245E-03
  1.01035448E-02  1.37452490E-02 -1.00718977E-02 -2.42183063E+00 -1.61368630E-04
 -3.06292792E-03  6.30314701E-03 -2.73473179E-02  9.48593926E-03 -6.46842770E-02
  1.74240901E-03 -1.27674707E-03 -3.07002016E-01  4.87083528E-03  1.62403014E-03
  1.84230501E-03 -6.56937334E-02 -2.62296305E-02 -3.06917604E-02  1.15845070E-02
 -8.48860576E-03 -2.04112083E+00  5.03909450E-04  6.55464037E-03 -4.62591055E-04
 -3.24168718E-02 -6.38018752E-02 -1.31279845E-02 -2.70721649E-02  1.98372584E-02
  4.76995349E+00 -4.94039155E-03 -4.98339891E-03 -7.52378118E-03  9.06979972E-03
  2.41203197E-02  4.06797157E-02  1.45211197E-10 -1.57274609E-12 -5.16401177E-09
 -1.75269297E-08 -4.10657545E-03  5.73950389E-02 -4.07018171E-02 -7.53213464E-03
  1.05271949E-01 -7.46538340E-02 -8.73088958E-02  1.22026188E+00 -8.65351376E-01
  1.21685143E-05 -1.61185337E-04  1.05480226E-05  5.05989712E-06  2.34516587E-04
 -1.28245670E-03  1.69876448E-02 -1.11168461E-03 -5.33267556E-04 -2.47161753E-02
  2.20922780E-02 -1.61882069E-02 -3.89252711E+00 -7.52524691E-03 -3.87378185E-03
  2.94759367E-03  5.94332327E-02  3.17741368E-04 -1.75312578E-03  7.17139896E-04
 -5.25481663E-04 -1.26355754E-01 -9.10504055E-05  4.22405299E-03 -3.41215245E-03
  2.78315270E-03 -6.13893990E-02  4.67094279E-02 -2.38616956E-02  1.74847602E-02
  4.20428788E+00  7.55237410E-03 -4.76491980E-03  3.00968496E-03 -5.54612882E-02
  7.10839582E-03 -2.22627038E-03  1.05227753E-03 -7.71060194E-04 -1.85405008E-01
  4.39646950E-05  4.69359685E-03 -2.74294285E-03  1.75430993E-03 -6.49674136E-02
  4.16099144E-02 -2.31904761E-10  1.79293258E-09 -1.51809865E-08 -5.27263637E-08
  2.63779402E-03  7.28668222E-02 -3.77534874E-02 -4.87908466E-02 -1.34780581E+00
  6.98320138E-01 -1.27750163E-01 -3.52898998E+00  1.82842718E+00  2.20942873E-04
 -6.65930348E-03 -3.91917725E-04 -2.48987780E-05  7.20413361E-03 -7.59357064E-03
  2.28873435E-01  1.34698091E-02  8.55752074E-04 -2.47598689E-01  1.03257304E-01
  2.80258165E+00  4.68642096E+00 -7.54875693E-03 -1.32421536E-02  8.68702133E-03
 -3.98966621E-01 -3.43759323E-01  2.77947312E-01  1.13473752E-02  3.07987387E-01
  5.15010334E-01  6.07481035E-04 -5.43065237E-03  1.49901888E-03  4.69799149E-02
  8.33384955E-02 -1.15060421E-01 -9.86839679E-02 -2.67845340E+00 -4.47885619E+00
  6.95185360E-03 -1.30718785E-02  8.02669919E-03  3.93861781E-01 -3.34449464E-01
  2.41843868E-01 -1.59207111E-02 -4.32115601E-01 -7.22575072E-01 -1.36495542E-03
 -5.66884692E-03  1.17182062E-03 -6.08640774E-02  7.03151452E-02 -1.32950194E-01
  7.01776305E-10 -4.61159001E-09  4.30900652E-08  1.46785823E-07 -5.41167785E-02
 -2.68521198E-02 -5.56075135E-02  1.00098927E+00  4.96679308E-01  1.02856317E+00
  2.62091254E+00  1.30046651E+00  2.69310987E+00  1.58638007E-03  5.56524317E-03
  5.64308632E-03  1.36952887E-03  5.40743298E-03 -5.45222516E-02 -1.91271702E-01
 -1.93947097E-01 -4.70693129E-02 -1.85847927E-01 -3.32542478E-02 -9.02577767E-01
 -1.50927247E+00  5.90884263E-03  4.48568086E-03  1.62668273E-03  4.06555786E-02
  1.05126613E-01 -2.01253249E-01 -3.18644440E-02 -8.64856112E-01 -1.44619507E+00
  1.34374602E-03  3.64375931E-03  6.34274616E-03 -2.08943376E-01  5.90941642E-02
  5.66000003E-02 -5.83840932E-02 -1.58464519E+00 -2.64981199E+00  7.74800436E-03
 -3.16594530E-03  6.92106549E-03  1.41212698E-01 -3.13229968E-01  8.82198424E-02
  1.23502785E-01  3.35207896E+00  5.60527944E+00  1.27857128E-02  8.82374883E-03
  1.36612305E-02  4.16652049E-01  3.42312767E-01  4.56741890E-01 -2.62296699E-09
  1.78346366E-08 -1.63314587E-07 -5.58073887E-07 -6.16950078E-02  2.66692217E-02
  4.71628683E-02  1.14116254E+00 -4.93296272E-01 -8.72363924E-01  2.98793140E+00
 -1.29160865E+00 -2.28412996E+00  2.45782630E-03 -4.56914790E-03  7.29584193E-03
  1.05060484E-03 -3.89843564E-03 -8.44729672E-02  1.57036920E-01 -2.50750601E-01
 -3.61082134E-02  1.33985232E-01 -6.17997176E-02 -1.67735105E+00 -2.80483305E+00
  8.44285723E-03  3.33695839E-03 -6.80316794E-03  1.39656499E-01  3.21625805E-01
 -1.25842942E-01  1.20179093E-01  3.26186841E+00  5.45443118E+00  1.22857109E-02
 -8.87181334E-03 -1.33084892E-02  3.49766486E-01 -3.45895170E-01 -4.81524725E-01
 -4.93952745E-02 -1.34067303E+00 -2.24184678E+00  7.59386572E-03 -5.90293756E-03
 -2.95285031E-04  9.32374570E-02 -1.83570408E-01  2.29979000E-01 -8.98409944E-03
 -2.43843906E-01 -4.07751004E-01  3.35492031E-03 -2.25554185E-03 -3.80887245E-03
 -1.38529197E-01  1.58528503E-02  3.78716772E-02  4.50633251E-02 -2.88796014E-01
  2.47900943E+00  8.15754565E+00 -3.71436583E-09  3.16908581E-09  4.71151429E-09
  7.86262887E-08 -6.83894493E-08 -9.32471464E-08  1.46440492E-07 -1.27041952E-07
 -1.74776373E-07  3.70553908E-11 -1.42149005E-12  9.43366944E-12 -1.27315518E-10
 -6.63622257E-11 -9.01151487E-09  2.47095004E-08 -2.19131620E-08  2.03650755E-09
  1.77509839E-08  1.15859362E-03 -1.63221905E+00 -1.18848860E+00  1.57284006E-02
  1.80914082E-02 -1.32669844E-02  2.28695809E-01  2.63054674E-01 -1.92906051E-01
  1.15860414E-03 -1.63221864E+00 -1.18848816E+00 -1.51280957E-02  1.30632362E-02
  1.87399831E-02 -2.19967166E-01  1.89943468E-01  2.72485116E-01  1.15859314E-03
 -1.63221905E+00 -1.18848861E+00  1.58940434E-02 -1.85499347E-02  1.24086189E-02
  2.31104304E-01 -2.69721781E-01  1.80425163E-01  1.15859362E-03 -1.63221905E+00
 -1.18848860E+00 -1.64943471E-02 -1.26047106E-02 -1.78816189E-02 -2.39832917E-01
 -1.83276386E-01 -2.60004263E-01  1.27057807E-09 -4.76500164E-09 -3.35937248E-08
  1.02998645E-07 -1.44935283E-01  1.34811641E-01  1.99824041E-01 -3.57880380E-01
  3.32882628E-01  4.93414008E-01  5.36334286E-01 -4.98871695E-01 -7.39450659E-01
 -5.72845714E-03  1.99402886E-02 -1.58946018E-02 -1.79116645E-03  1.43902873E-02
  5.46908304E-02 -1.90374250E-01  1.51749207E-01  1.71006550E-02 -1.37387187E-01
  3.54076960E-02  5.93924400E-01 -8.12809979E-01 -9.75365805E-04 -7.92330228E-04