title                                                                   
Freq      RMP2-FC                                                     Aug-CC-pVTZ         
Number of atoms                            I                4
Info1-9                                    I   N=           9
          25          20        1002           0           0         100
           6           2           1
Full Title                                 C   N=           1
title       
Route                                      C   N=           4
# opt=(z-matrix,tight) mp2/aug-cc-pvtz freq=anh 
Charge                                     I               -1
Multiplicity                               I                1
Number of electrons                        I               44
Number of alpha electrons                  I               22
Number of beta electrons                   I               22
Number of basis functions                  I              169
Number of independent functions            I              169
Number of point charges in /Mol/           I                0
Number of translation vectors              I                0
Atomic numbers                             I   N=           4
           8           1          17          17
Nuclear charges                            R   N=           4
  8.00000000E+00  1.00000000E+00  1.70000000E+01  1.70000000E+01
Current cartesian coordinates              R   N=          12
  1.25638768E+00  1.83564897E+00 -8.37731484E-07 -5.04449423E-01  1.01351829E+00
  1.08933879E-05  3.24437771E+00 -6.48176041E-01  5.31554565E-21 -3.80594548E+00
 -2.75277490E-01 -2.29561556E-07
Number of symbols in /Mol/                 I                0
Force Field                                I                0
Atom Types                                 C   N=           4
                                                
Int Atom Types                             I   N=           4
           0           0           0           0
MM charges                                 R   N=           4
  0.00000000E+00  0.00000000E+00  0.00000000E+00  0.00000000E+00
Integer atomic weights                     I   N=           4
          16           1          35          35
Real atomic weights                        R   N=           4
  1.59949146E+01  1.00782504E+00  3.49688527E+01  3.49688527E+01
Atom fragment info                         I   N=           4
           0           0           0           0
Atom residue num                           I   N=           4
           0           0           0           0
Nuclear spins                              I   N=           4
           0           1           3           3
Nuclear ZEff                               R   N=           4
 -5.60000000E+00 -1.00000000E+00 -1.42400000E+01 -1.42400000E+01
Nuclear ZNuc                               R   N=           4
  8.00000000E+00  1.00000000E+00  1.70000000E+01  1.70000000E+01
Nuclear QMom                               R   N=           4
  0.00000000E+00  0.00000000E+00 -8.16500000E+00 -8.16500000E+00
Nuclear GFac                               R   N=           4
  0.00000000E+00  2.79284600E+00  8.21874000E-01  8.21874000E-01
MicOpt                                     I   N=           4
          -1          -1          -1          -1
Number of residues                         I                0
Number of secondary structures             I                0
SymInf integers                            I   N=          26
           1           1           1           1           1           0
           0           0           0           0           0           0
           0           0           0           0           0           0
           0           0           0           0           0           0
           0           0
RotTr to input orientation                 R   N=          12
  4.23057312E-01  4.73989357E-06 -9.06102925E-01 -9.06102925E-01  4.11727604E-06
 -4.23057312E-01  1.72542923E-06  1.00000000E+00  6.03667516E-06  1.13176290E+00
 -1.26752859E-05  1.91500127E+00
Number of contracted shells                I               55
Number of primitive shells                 I              140
Pure/Cartesian d shells                    I                0
Pure/Cartesian f shells                    I                0
Highest angular momentum                   I                3
Largest degree of contraction              I               11
Shell types                                I   N=          55
           0           0           0           0           0           1
           1           1           1          -2          -2          -2
          -3          -3           0           0           0           0
           1           1           1          -2          -2           0
           0           0           0           0           0           1
           1           1           1           1          -2          -2
          -2          -3          -3           0           0           0
           0           0           0           1           1           1
           1           1          -2          -2          -2          -3
          -3
Number of primitives per shell             I   N=          55
           7           6           1           1           1           3
           1           1           1           1           1           1
           1           1           3           1           1           1
           1           1           1           1           1          11
           9           8           1           1           1           6
           6           1           1           1           1           1
           1           1           1          11           9           8
           1           1           1           6           6           1
           1           1           1           1           1           1
           1
Shell to atom map                          I   N=          55
           1           1           1           1           1           1
           1           1           1           1           1           1
           1           1           2           2           2           2
           2           2           2           2           2           3
           3           3           3           3           3           3
           3           3           3           3           3           3
           3           3           3           4           4           4
           4           4           4           4           4           4
           4           4           4           4           4           4
           4
Primitive exponents                        R   N=         140
  1.53300000E+04  2.29900000E+03  5.22400000E+02  1.47300000E+02  4.75500000E+01
  1.67600000E+01  6.20700000E+00  5.22400000E+02  1.47300000E+02  4.75500000E+01
  1.67600000E+01  6.20700000E+00  6.88200000E-01  1.75200000E+00  2.38400000E-01
  7.37600000E-02  3.44600000E+01  7.74900000E+00  2.28000000E+00  7.15600000E-01
  2.14000000E-01  5.97400000E-02  2.31400000E+00  6.45000000E-01  2.14000000E-01
  1.42800000E+00  5.00000000E-01  3.38700000E+01  5.09500000E+00  1.15900000E+00
  3.25800000E-01  1.02700000E-01  2.52600000E-02  1.40700000E+00  3.88000000E-01
  1.02000000E-01  1.05700000E+00  2.47000000E-01  4.56100000E+05  6.83300000E+04
  1.55500000E+04  4.40500000E+03  1.43900000E+03  5.20400000E+02  2.03100000E+02
  8.39600000E+01  3.62000000E+01  1.58300000E+01  6.33400000E+00  4.40500000E+03
  1.43900000E+03  5.20400000E+02  2.03100000E+02  8.39600000E+01  3.62000000E+01
  1.58300000E+01  6.33400000E+00  2.69400000E+00  1.43900000E+03  2.03100000E+02
  8.39600000E+01  3.62000000E+01  1.58300000E+01  6.33400000E+00  2.69400000E+00
  4.31300000E-01  9.76800000E-01  1.62500000E-01  5.91000000E-02  6.63300000E+02
  1.56800000E+02  4.99800000E+01  1.84200000E+01  7.24000000E+00  2.92200000E+00
  1.56800000E+02  4.99800000E+01  1.84200000E+01  7.24000000E+00  2.92200000E+00
  3.81800000E-01  1.02200000E+00  1.30100000E-01  4.19000000E-02  1.04600000E+00
  3.44000000E-01  1.35000000E-01  7.06000000E-01  3.12000000E-01  4.56100000E+05
  6.83300000E+04  1.55500000E+04  4.40500000E+03  1.43900000E+03  5.20400000E+02
  2.03100000E+02  8.39600000E+01  3.62000000E+01  1.58300000E+01  6.33400000E+00
  4.40500000E+03  1.43900000E+03  5.20400000E+02  2.03100000E+02  8.39600000E+01
  3.62000000E+01  1.58300000E+01  6.33400000E+00  2.69400000E+00  1.43900000E+03
  2.03100000E+02  8.39600000E+01  3.62000000E+01  1.58300000E+01  6.33400000E+00
  2.69400000E+00  4.31300000E-01  9.76800000E-01  1.62500000E-01  5.91000000E-02
  6.63300000E+02  1.56800000E+02  4.99800000E+01  1.84200000E+01  7.24000000E+00
  2.92200000E+00  1.56800000E+02  4.99800000E+01  1.84200000E+01  7.24000000E+00
  2.92200000E+00  3.81800000E-01  1.02200000E+00  1.30100000E-01  4.19000000E-02
  1.04600000E+00  3.44000000E-01  1.35000000E-01  7.06000000E-01  3.12000000E-01
Contraction coefficients                   R   N=         140
  5.19808943E-04  4.02025621E-03  2.07128267E-02  8.10105536E-02  2.35962985E-01
  4.42653446E-01  3.57064423E-01 -4.42115008E-05 -1.22591041E-03 -1.05517725E-02
 -6.74452633E-02 -1.71198607E-01  1.07329856E+00  1.00000000E+00  1.00000000E+00
  1.00000000E+00  4.11634896E-02  2.57762836E-01  8.02419274E-01  1.00000000E+00
  1.00000000E+00  1.00000000E+00  1.00000000E+00  1.00000000E+00  1.00000000E+00
  1.00000000E+00  1.00000000E+00  2.54948632E-02  1.90362766E-01  8.52162022E-01
  1.00000000E+00  1.00000000E+00  1.00000000E+00  1.00000000E+00  1.00000000E+00
  1.00000000E+00  1.00000000E+00  1.00000000E+00  4.93229477E-05  3.83207967E-04
  2.00947816E-03  8.38950124E-03  2.94843950E-02  8.78759948E-02  2.11589759E-01
  3.65611554E-01  3.41246350E-01  1.02162570E-01  2.14249949E-03 -2.21747925E-06
 -1.71189708E-04 -1.27922846E-03 -9.32956265E-03 -3.98910062E-02 -1.05536085E-01
  9.36202446E-03  5.10511140E-01  5.73150737E-01  4.03949245E-06  2.12481765E-04
  8.59484452E-04  4.63248159E-03  4.47343490E-04 -7.38438245E-02 -3.62271994E-01
  1.16620337E+00  1.00000000E+00  1.00000000E+00  1.00000000E+00  2.47206402E-03
  1.97550234E-02  9.09917355E-02  2.63187834E-01  4.49078073E-01  3.60183072E-01
  3.03427809E-05 -1.22475826E-03 -6.01429772E-03 -2.76401323E-02  4.35105612E-04
  1.00307272E+00  1.00000000E+00  1.00000000E+00  1.00000000E+00  1.00000000E+00
  1.00000000E+00  1.00000000E+00  1.00000000E+00  1.00000000E+00  4.93229477E-05
  3.83207967E-04  2.00947816E-03  8.38950124E-03  2.94843950E-02  8.78759948E-02
  2.11589759E-01  3.65611554E-01  3.41246350E-01  1.02162570E-01  2.14249949E-03
 -2.21747925E-06 -1.71189708E-04 -1.27922846E-03 -9.32956265E-03 -3.98910062E-02
 -1.05536085E-01  9.36202446E-03  5.10511140E-01  5.73150737E-01  4.03949245E-06
  2.12481765E-04  8.59484452E-04  4.63248159E-03  4.47343490E-04 -7.38438245E-02
 -3.62271994E-01  1.16620337E+00  1.00000000E+00  1.00000000E+00  1.00000000E+00
  2.47206402E-03  1.97550234E-02  9.09917355E-02  2.63187834E-01  4.49078073E-01
  3.60183072E-01  3.03427809E-05 -1.22475826E-03 -6.01429772E-03 -2.76401323E-02
  4.35105612E-04  1.00307272E+00  1.00000000E+00  1.00000000E+00  1.00000000E+00
  1.00000000E+00  1.00000000E+00  1.00000000E+00  1.00000000E+00  1.00000000E+00
Coordinates of each shell                  R   N=         165
  1.25638768E+00  1.83564897E+00 -8.37731484E-07  1.25638768E+00  1.83564897E+00
 -8.37731484E-07  1.25638768E+00  1.83564897E+00 -8.37731484E-07  1.25638768E+00
  1.83564897E+00 -8.37731484E-07  1.25638768E+00  1.83564897E+00 -8.37731484E-07
  1.25638768E+00  1.83564897E+00 -8.37731484E-07  1.25638768E+00  1.83564897E+00
 -8.37731484E-07  1.25638768E+00  1.83564897E+00 -8.37731484E-07  1.25638768E+00
  1.83564897E+00 -8.37731484E-07  1.25638768E+00  1.83564897E+00 -8.37731484E-07
  1.25638768E+00  1.83564897E+00 -8.37731484E-07  1.25638768E+00  1.83564897E+00
 -8.37731484E-07  1.25638768E+00  1.83564897E+00 -8.37731484E-07  1.25638768E+00
  1.83564897E+00 -8.37731484E-07 -5.04449423E-01  1.01351829E+00  1.08933879E-05
 -5.04449423E-01  1.01351829E+00  1.08933879E-05 -5.04449423E-01  1.01351829E+00
  1.08933879E-05 -5.04449423E-01  1.01351829E+00  1.08933879E-05 -5.04449423E-01
  1.01351829E+00  1.08933879E-05 -5.04449423E-01  1.01351829E+00  1.08933879E-05
 -5.04449423E-01  1.01351829E+00  1.08933879E-05 -5.04449423E-01  1.01351829E+00
  1.08933879E-05 -5.04449423E-01  1.01351829E+00  1.08933879E-05  3.24437771E+00
 -6.48176041E-01  0.00000000E+00  3.24437771E+00 -6.48176041E-01  0.00000000E+00
  3.24437771E+00 -6.48176041E-01  0.00000000E+00  3.24437771E+00 -6.48176041E-01
  0.00000000E+00  3.24437771E+00 -6.48176041E-01  0.00000000E+00  3.24437771E+00
 -6.48176041E-01  0.00000000E+00  3.24437771E+00 -6.48176041E-01  0.00000000E+00
  3.24437771E+00 -6.48176041E-01  0.00000000E+00  3.24437771E+00 -6.48176041E-01
  0.00000000E+00  3.24437771E+00 -6.48176041E-01  0.00000000E+00  3.24437771E+00
 -6.48176041E-01  0.00000000E+00  3.24437771E+00 -6.48176041E-01  0.00000000E+00
  3.24437771E+00 -6.48176041E-01  0.00000000E+00  3.24437771E+00 -6.48176041E-01
  0.00000000E+00  3.24437771E+00 -6.48176041E-01  0.00000000E+00  3.24437771E+00
 -6.48176041E-01  0.00000000E+00 -3.80594548E+00 -2.75277490E-01 -2.29561556E-07
 -3.80594548E+00 -2.75277490E-01 -2.29561556E-07 -3.80594548E+00 -2.75277490E-01
 -2.29561556E-07 -3.80594548E+00 -2.75277490E-01 -2.29561556E-07 -3.80594548E+00
 -2.75277490E-01 -2.29561556E-07 -3.80594548E+00 -2.75277490E-01 -2.29561556E-07
 -3.80594548E+00 -2.75277490E-01 -2.29561556E-07 -3.80594548E+00 -2.75277490E-01
 -2.29561556E-07 -3.80594548E+00 -2.75277490E-01 -2.29561556E-07 -3.80594548E+00
 -2.75277490E-01 -2.29561556E-07 -3.80594548E+00 -2.75277490E-01 -2.29561556E-07
 -3.80594548E+00 -2.75277490E-01 -2.29561556E-07 -3.80594548E+00 -2.75277490E-01
 -2.29561556E-07 -3.80594548E+00 -2.75277490E-01 -2.29561556E-07 -3.80594548E+00
 -2.75277490E-01 -2.29561556E-07 -3.80594548E+00 -2.75277490E-01 -2.29561556E-07
Num ILSW                                   I              100
ILSW                                       I   N=         100
           0           0           0           1           2           0
           0           0           0           0           0          -1
           5           0           0           0           2           0
           0           0           1           0           1           0
           1           0           0           0           0           0
           0           0      100000           0          -1           0
           0           0           0           0           0           0
           0           0           0           1           1           0
           0 -2000000000           1           0           0           0
           0           0           4          52           0           0
           0           0           0           0           0           0
           0           0           0           0           4           1
           0           0           0           0           0           0
           0           0           0           0           0           0
           0           0           0           0           0           0
           0           0           0           0           0           0
           0           0           0           0
Num RLSW                                   I               52
RLSW                                       R   N=          52
  1.00000000E+00  1.00000000E+00  1.00000000E+00  1.00000000E+00  1.00000000E+00
  0.00000000E+00  0.00000000E+00  1.00000000E+00  0.00000000E+00  0.00000000E+00
  0.00000000E+00  0.00000000E+00  1.00000000E+00  0.00000000E+00  0.00000000E+00
  0.00000000E+00  0.00000000E+00  1.00000000E+00  0.00000000E+00  0.00000000E+00
  0.00000000E+00  0.00000000E+00  1.00000000E+00  0.00000000E+00  0.00000000E+00
  0.00000000E+00  0.00000000E+00  1.00000000E+00  0.00000000E+00  0.00000000E+00
  0.00000000E+00  0.00000000E+00  1.00000000E+00  0.00000000E+00  0.00000000E+00
  0.00000000E+00  0.00000000E+00  0.00000000E+00  1.00000000E+00  1.00000000E+00
  0.00000000E+00  1.00000000E+00  0.00000000E+00  0.00000000E+00  0.00000000E+00
  0.00000000E+00  0.00000000E+00  0.00000000E+00  0.00000000E+00  0.00000000E+00
  0.00000000E+00  0.00000000E+00
MxBond                                     I                2
NBond                                      I   N=           4
           2           1           1           0
IBond                                      I   N=           8
           2           3           1           0           1           0
           0           0
RBond                                      R   N=           8
  1.00000000E+00  1.00000000E+00  1.00000000E+00  0.00000000E+00  1.00000000E+00
  0.00000000E+00  0.00000000E+00  0.00000000E+00
Virial Ratio                               R      2.000160627060208E+00
SCF Energy                                 R     -9.945240139448665E+02
MP2 Energy                                 R     -9.951922042318466E+02
Total Energy                               R     -9.951922042318466E+02
Post-SCF wavefunction norm                 R      1.561144870523260E+00
RMS Force                                  R      1.052364917187097E-06
RMS Density                                R      2.000894028437293E-09
NImag                                      I                0
Job Status                                 I                1
Nuclear derivative order                   I                3
External E-field                           R   N=          35
  0.00000000E+00  0.00000000E+00  0.00000000E+00  0.00000000E+00  0.00000000E+00
  0.00000000E+00  0.00000000E+00  0.00000000E+00  0.00000000E+00  0.00000000E+00
  0.00000000E+00  0.00000000E+00  0.00000000E+00  0.00000000E+00  0.00000000E+00
  0.00000000E+00  0.00000000E+00  0.00000000E+00  0.00000000E+00  0.00000000E+00
  0.00000000E+00  0.00000000E+00  0.00000000E+00  0.00000000E+00  0.00000000E+00
  0.00000000E+00  0.00000000E+00  0.00000000E+00  0.00000000E+00  0.00000000E+00
  0.00000000E+00  0.00000000E+00  0.00000000E+00  0.00000000E+00  0.00000000E+00
IOpCl                                      I                0
IROHF                                      I                0
Alpha Orbital Energies                     R   N=         169
 -1.04723954E+02 -1.04549079E+02 -2.04498189E+01 -1.04434927E+01 -1.02739735E+01
 -7.91065753E+00 -7.90808063E+00 -7.90798622E+00 -7.74014284E+00 -7.73996803E+00
 -7.73996326E+00 -1.21809658E+00 -8.88069063E-01 -7.88958255E-01 -5.30274921E-01
 -4.32970811E-01 -4.24710045E-01 -3.01906932E-01 -2.72691375E-01 -2.05162024E-01
 -1.97045884E-01 -1.96982102E-01  1.60724954E-01  1.86393234E-01  2.26227267E-01
  2.34294102E-01  2.56701809E-01  2.72167104E-01  2.74935727E-01  2.95395155E-01
  3.11317977E-01  3.27845598E-01  3.36724171E-01  3.49786223E-01  3.85959449E-01
  4.52226922E-01  4.61200043E-01  5.11280539E-01  5.28985265E-01  5.41239061E-01
  5.66131537E-01  5.66936098E-01  5.85303720E-01  5.97381233E-01  6.05374553E-01
  6.50280922E-01  6.60060468E-01  6.84166851E-01  6.87471592E-01  7.55009291E-01
  7.84512952E-01  7.85649723E-01  8.35251843E-01  8.77463637E-01  8.85165784E-01
  9.01121233E-01  9.10834059E-01  9.20667827E-01  9.66927103E-01  1.00542975E+00
  1.04877386E+00  1.06224473E+00  1.06864541E+00  1.08831087E+00  1.09454445E+00
  1.10055659E+00  1.13771320E+00  1.14464993E+00  1.16900015E+00  1.18464699E+00
  1.18623405E+00  1.21687325E+00  1.22608848E+00  1.24618473E+00  1.29687225E+00
  1.32366175E+00  1.33260742E+00  1.37401622E+00  1.40552483E+00  1.42633969E+00
  1.42905914E+00  1.46518549E+00  1.48183659E+00  1.50333554E+00  1.54578189E+00
  1.61440360E+00  1.65862953E+00  1.67526994E+00  1.68569762E+00  1.72979545E+00
  1.74350134E+00  1.79960063E+00  1.81030857E+00  1.84421028E+00  1.86820586E+00
  1.91794528E+00  1.95166886E+00  2.00832969E+00  2.29377076E+00  2.39459584E+00
  2.51040628E+00  2.51826043E+00  2.53748060E+00  2.59941769E+00  2.59962951E+00
  2.62495588E+00  2.67201793E+00  2.68824372E+00  2.71492369E+00  2.72517733E+00
  2.73921226E+00  2.77232366E+00  2.77525399E+00  2.79487889E+00  2.80121014E+00
  2.82127883E+00  2.89425579E+00  2.91899499E+00  2.99167360E+00  2.99311944E+00
  3.06168627E+00  3.09483289E+00  3.14773827E+00  3.15041344E+00  3.20219241E+00
  3.22502066E+00  3.24254781E+00  3.27761526E+00  3.30720553E+00  3.32619834E+00
  3.33420639E+00  3.34053304E+00  3.40346917E+00  3.40509991E+00  3.41642130E+00
  3.47559205E+00  3.51550542E+00  3.54026627E+00  3.56333753E+00  3.58878286E+00
  3.71496997E+00  3.96661518E+00  4.27024350E+00  4.32014463E+00  4.47320291E+00
  4.55722093E+00  4.60155451E+00  4.79886646E+00  5.00455295E+00  5.17338067E+00
  5.39981014E+00  5.40453995E+00  5.68146067E+00  6.38350434E+00  6.58587796E+00
  6.69929682E+00  6.86705833E+00  6.91234469E+00  6.92644744E+00  7.01392546E+00
  7.28225852E+00  7.33285246E+00  7.35368453E+00  7.46057678E+00  7.57361958E+00
  7.77638778E+00  7.85047230E+00  8.38669612E+00  1.46166401E+01
Alpha MO coefficients                      R   N=       28561
  4.96933619E-06  2.79056399E-05  2.50070109E-06 -1.54491170E-04 -1.08412754E-04
  7.32151613E-07 -2.86088431E-06  1.37409815E-11  1.08556262E-06  9.97950988E-06
 -6.69704098E-11 -1.06291908E-04  1.14044071E-04 -2.15728783E-11 -2.55162187E-05
  2.96771072E-05  2.98658534E-11 -2.19603602E-06 -2.98149310E-12 -3.59841998E-12
 -7.88733879E-07 -3.31816917E-06  1.46968849E-05  1.74537583E-11  2.58495392E-11
  5.08823166E-06  2.18679521E-05  2.43162994E-05 -1.09880917E-10  1.39756833E-11
  2.80516393E-05  5.34617456E-05 -3.86813138E-12  2.11787274E-07  1.63999259E-07
 -1.02352472E-11 -2.86676729E-12  1.45716702E-06  1.49372286E-06  1.63793174E-11
  7.99741860E-06 -1.07320981E-05  4.57264749E-11  1.87716623E-11  9.59855131E-06
  2.26928995E-06 -1.77085626E-06 -1.64559754E-05  6.29371805E-05 -6.90391886E-06
 -1.78539429E-06  2.04642218E-06  1.49172044E-12  1.64896639E-05 -8.72846929E-06
 -3.38975463E-11  1.43976103E-05 -2.28501393E-05 -7.39397489E-11 -5.94319007E-07
 -1.93740872E-12 -2.31197261E-12  4.96565278E-07 -8.75529757E-07 -1.54221260E-05
 -1.19297068E-10 -7.45401291E-12  6.69962878E-06  8.42135529E-06  9.99534800E-01
  1.95499610E-03  1.85982529E-04 -4.18650114E-04  6.75784307E-05  7.35659290E-05
 -4.76363565E-05  5.95081408E-05 -6.62627265E-12 -9.11646934E-05  1.04183291E-04
  5.96729787E-12  4.68678569E-05 -5.61372236E-05  7.79647409E-13 -2.33546403E-05
  4.88137267E-05 -9.95540847E-11 -6.72759089E-06  9.32318233E-06 -2.80274765E-11
 -3.55093306E-06  2.21345097E-12 -2.67532267E-12 -6.09384083E-07 -5.75933345E-06
 -2.83630701E-05  9.32873993E-13 -1.43948187E-11 -8.89235339E-06 -4.84551503E-05
  6.56155989E-09  8.06650814E-11 -8.26875339E-12 -8.24383987E-06 -6.59714135E-06
 -8.31161718E-12  4.57821161E-06 -4.70778913E-06  1.63771138E-11 -2.03988501E-12
  4.80587291E-06  3.46120773E-06  2.60160266E-11  5.49867554E-07 -2.80667929E-06
 -3.46664369E-11  1.36820019E-11  8.50571041E-06  2.38602756E-06  1.38045108E-07
  1.75114025E-06  4.53558306E-06 -7.28672464E-07 -1.86749133E-05 -9.56159243E-06
 -2.32467664E-07 -1.33521182E-07 -3.82526163E-12 -2.89420952E-06 -2.58895784E-06
 -4.21329220E-11  9.07375621E-07  4.85772250E-07  1.58842520E-11 -1.81162233E-05
  2.40139661E-06 -8.03550905E-11 -3.13019263E-06 -1.26266521E-06  1.11953751E-11
 -2.99867719E-07  1.02917391E-11  6.12119394E-12  5.38398311E-07 -3.73047681E-07
  1.73000768E-06 -5.54268842E-11 -3.23569303E-11 -2.54762299E-06 -1.83885762E-07
  3.43990270E-06 -4.86426506E-11  2.86393838E-11 -7.28836189E-06  1.20576616E-06
 -5.58707486E-12 -4.27162888E-07  7.67948382E-08  1.03222742E-11 -1.33421508E-11
  7.84238872E-07 -4.10316719E-07  3.06507515E-11  1.83342508E-06 -2.33595891E-07
 -4.05039701E-11  1.39112863E-11 -3.15224093E-06  1.34413993E-06  2.66949085E-06
  1.45852726E-05 -8.31157719E-07  1.88055314E-05  8.00419196E-05  1.49111235E-07
  8.13268462E-08 -1.02052895E-11 -4.76202848E-06 -2.30676534E-06  6.27328175E-11
  5.95418763E-05  2.13699799E-05  6.40298183E-10 -3.39078062E-06 -3.71211660E-06
  4.10757974E-10 -6.64816780E-07  1.13551978E-11  9.68132556E-12  8.14918695E-07
  7.02025062E-07  2.52758688E-06 -1.04445712E-10 -6.64311868E-11 -3.40506550E-06
 -2.39143475E-06  1.84319068E-05 -4.22708608E-11 -6.19052999E-12 -2.12389582E-05
 -2.22556990E-05 -2.66684657E-11  6.64520220E-07  2.58156182E-07  1.74643830E-11
  1.56555587E-11 -1.25523517E-07 -3.79505717E-07  1.24979681E-11 -3.95191891E-06
 -1.57801422E-06 -3.14080820E-12  2.15706632E-11  1.81259545E-06  3.72703148E-06
  1.28266415E-06  8.61192886E-05  1.79701706E-05  2.26164122E-06  4.38429427E-07
  5.05086102E-07  3.40235988E-11  9.81792596E-07  2.37274819E-06 -6.10232568E-10
 -1.39639164E-04 -6.40462036E-05 -5.75529559E-10  5.56514830E-07 -7.88977186E-11
 -4.33815537E-11 -7.89235582E-07 -4.67013514E-07  1.44186274E-05 -1.98556385E-10
 -7.15362317E-11 -2.17774103E-05 -2.08336137E-05  1.23279843E-08  6.38030453E-07
  1.31070004E-06 -1.12958523E-06  2.68268138E-06 -1.71939234E-05 -3.12915560E-07
 -1.38392175E-07 -1.12557445E-12 -4.57429022E-06 -1.99499593E-06 -9.41010984E-12
  1.27291908E-06  4.57228544E-07  3.97356979E-12  1.00944262E-05 -1.80470880E-07
  8.00740418E-11  2.96701089E-06 -3.65741939E-06 -7.76861332E-11 -1.52288689E-07
 -4.17652275E-12 -1.51585322E-12  1.88813446E-07 -1.96553774E-07 -5.58113943E-07
  7.22628537E-12  8.04040303E-12  9.17070002E-07  2.35833749E-07  3.87361624E-06
 -4.75302723E-11  2.20509148E-13 -5.73008027E-06  6.86912007E-07 -1.52959838E-11
  1.02904213E-06  2.02970755E-07 -1.70147102E-12  9.38828374E-12 -5.58961489E-07
  4.56819527E-08  2.72160377E-11 -2.38525265E-06 -9.41463110E-07  5.21574414E-13
 -2.46021169E-11  1.76270551E-06  1.97578273E-07  9.99531965E-01  1.98848697E-03
  2.23028034E-04 -4.30061888E-04 -1.80758767E-04 -5.38044348E-05  1.07495736E-05
  4.26323190E-06  1.01088305E-10  3.43169529E-05  1.31746111E-05  1.84112719E-10
 -1.41636351E-05 -5.54278995E-06 -1.03729934E-10 -8.76882052E-05 -3.22583956E-05
 -3.41242813E-10 -1.04012235E-05 -4.28574387E-06 -4.69466055E-11 -6.12298579E-07
 -2.84867971E-12 -4.64279136E-14  6.00248016E-07  3.43837929E-07 -2.39389950E-06
  7.87401403E-11  2.68232529E-11  3.70979351E-06  3.82806827E-06  1.33232022E-05
 -2.06393651E-10 -7.33234475E-11 -1.82117679E-05 -1.58934280E-05 -2.21247485E-11
 -1.32600296E-06 -5.92764162E-07  1.85313093E-11  1.60455365E-11  8.97959092E-07
  1.67969167E-06  3.64204617E-11  3.04072807E-06  1.30701384E-06 -2.87175145E-11
 -2.58836817E-11 -1.92597019E-06 -3.50549833E-06  9.76807495E-01 -9.24812253E-03
  4.33862150E-02  1.57179189E-03  6.83667031E-04 -7.15163587E-05 -1.78523747E-03
  9.10645754E-09  4.43476664E-04  1.54171592E-03 -9.66555764E-09  3.10649927E-04
 -2.35393270E-04 -1.64590997E-09  2.74337462E-04 -1.28723526E-04 -6.47189874E-10
  3.98140581E-05 -2.25878108E-10 -1.68344526E-10  3.30925716E-05  1.03652114E-04
  4.74747780E-04  4.76510942E-09  2.62586449E-09 -1.12104162E-04  1.08646322E-04
 -1.55071214E-04 -4.41111565E-10  3.37023732E-10  5.25072990E-06 -1.72823314E-04
  1.87611709E-10 -2.76024277E-06 -2.23808478E-05  9.16195449E-11 -8.32942333E-11
  1.14420434E-05  2.09439522E-06  8.48835816E-10 -2.14648025E-05 -3.03596512E-05
 -6.71058488E-10 -1.42382233E-09 -2.04871368E-05  1.34468537E-04  2.65566779E-04
  1.12465308E-03  1.59028006E-03  1.93628022E-04  2.37226357E-04  6.89927116E-05
 -1.55410270E-09  1.22497772E-03  5.08573604E-04 -5.32334602E-09 -1.28608209E-03
 -4.04798330E-04  5.11811912E-09 -1.38854897E-05 -4.24413455E-10  2.31548852E-10
  5.90180275E-05 -2.91502756E-05 -5.58933382E-04 -1.03629785E-08 -4.04364998E-09
  7.96357353E-04  8.37257011E-04  4.12117536E-06  6.81565988E-05  6.96721095E-05
 -2.91069097E-04  2.73481505E-04 -7.24935726E-04 -4.95782323E-06  1.23921223E-05
 -3.48761033E-11 -3.53378272E-04  5.65840913E-04 -8.17306768E-10  1.61700953E-04
 -2.29886307E-04  2.30971502E-10  1.60438218E-05 -2.88177384E-04  1.88189534E-09
  8.32613493E-05 -1.36144481E-04 -1.26636043E-10  1.75537179E-05  1.40546904E-10
  8.46766084E-11 -2.85722565E-06  5.16275008E-06 -3.40696849E-04 -2.14783404E-11
 -8.08021085E-10 -1.67257186E-04 -4.83991539E-04  1.17630071E-04 -7.44342741E-10
  1.19011914E-09  1.69806503E-04  1.42908823E-04  3.54380879E-10  9.28501778E-05
 -1.38282181E-04 -4.97263711E-11  3.00668175E-10  2.19101869E-04  7.28373950E-05
 -3.98170327E-10  9.19620915E-05 -7.60328581E-05  4.72136727E-10  2.40432808E-11
  7.88080351E-05  4.65944776E-05 -3.06474893E-07  1.09736644E-06  5.13600534E-06
  4.23519749E-05 -1.25088012E-03 -6.90181399E-04 -1.10201641E-05 -3.92637568E-06
 -1.27737058E-10 -3.22753801E-04 -1.17071192E-04 -1.51845846E-09  3.97282075E-05
  1.35107334E-05  5.92753883E-10 -7.07831074E-04 -2.79444235E-04 -1.13574806E-08
 -1.08619552E-04 -3.26360369E-05 -9.40673478E-10  1.44690598E-05  4.94971863E-10
  1.84993390E-10 -1.63685183E-05 -1.07600757E-05  3.46124185E-05 -3.23102696E-09
 -1.19373811E-09 -5.63091693E-05 -5.16231822E-05  3.93386916E-05 -6.81096626E-09
 -2.69895633E-09 -6.39815683E-05 -4.37927886E-05 -3.92111467E-10  1.70677915E-05
  7.01066733E-06  4.20654280E-10  4.31156044E-10 -8.77239727E-06 -1.34597236E-05
  2.16549779E-09 -6.36380564E-05 -2.64566934E-05 -2.20596452E-09 -2.05121514E-09
  2.79237852E-05  5.64207933E-05 -6.64327805E-05 -4.22010571E-05 -1.06888451E-04
  2.85719627E-03  2.62765807E-03  4.25239188E-05 -2.67814493E-05 -1.73504168E-10
  2.58108879E-04 -4.92346649E-04  1.14979567E-09  1.42766416E-03 -1.86662468E-03
  2.58355517E-09  5.86816943E-04 -7.79823674E-04 -4.05172538E-10 -2.15611061E-05
  1.02165336E-10  9.60950276E-11 -3.38574079E-06 -5.36398360E-05 -2.16423484E-04
 -5.82333965E-10 -1.01533554E-09 -1.08110864E-04 -2.25770808E-04 -2.47274051E-04
  7.74539612E-10 -4.61265543E-10 -5.54021570E-04 -5.11107325E-04 -6.41969485E-11
 -1.28330483E-05  1.84648754E-05  1.46574334E-10  1.23784672E-10 -5.34045195E-05