DOD freq                                                                
Freq      RMP2-FC                                                     Aug-CC-pVDZ         
Number of atoms                            I                3
Info1-9                                    I   N=           9
          26          24        1002           0           0         100
           6           2           1
Charge                                     I                0
Multiplicity                               I                1
Number of electrons                        I               10
Number of alpha electrons                  I                5
Number of beta electrons                   I                5
Number of basis functions                  I               41
Number of independent functions            I               41
Number of point charges in /Mol/           I                0
Number of translation vectors              I                0
Atomic numbers                             I   N=           3
           8           1           1
Nuclear charges                            R   N=           3
  8.00000000E+00  1.00000000E+00  1.00000000E+00
Current cartesian coordinates              R   N=           9
  2.46519033E-32 -1.38777878E-17  2.25076602E-01 -1.97215226E-31  1.43714410E+00
 -9.00306410E-01 -1.75999392E-16 -1.43714410E+00 -9.00306410E-01
Force Field                                I                0
Int Atom Types                             I   N=           3
           0           0           0
MM charges                                 R   N=           3
  0.00000000E+00  0.00000000E+00  0.00000000E+00
Integer atomic weights                     I   N=           3
          16           2           2
Real atomic weights                        R   N=           3
  1.59949146E+01  2.01410179E+00  2.01410179E+00
Atom fragment info                         I   N=           3
           0           0           0
Atom residue num                           I   N=           3
           0           0           0
Nuclear spins                              I   N=           3
           0           2           2
Nuclear ZEff                               R   N=           3
 -5.60000000E+00 -1.00000000E+00 -1.00000000E+00
Nuclear ZNuc                               R   N=           3
  8.00000000E+00  1.00000000E+00  1.00000000E+00
Nuclear QMom                               R   N=           3
  0.00000000E+00  2.86000000E-01  2.86000000E-01
Nuclear GFac                               R   N=           3
  0.00000000E+00  8.57438000E-01  8.57438000E-01
MicOpt                                     I   N=           3
          -1          -1          -1
SymInf integers                            I   N=          26
           2           4           1           1           1          -1
          -1           1          -1           1           1           1
          -1           1           0           0           0           0
           0           0           0           0           0           0
           0           0
RotTr to input orientation                 R   N=          12
  4.74904920E-16 -1.00000000E+00 -8.11289127E-16 -6.16532999E-01 -9.31546067E-16
  7.87329068E-01 -7.87329068E-01  1.26280070E-16 -6.16532999E-01  1.77209352E-01
  3.51998783E-17  1.38767153E-01
Number of contracted shells                I               19
Number of primitive shells                 I               37
Pure/Cartesian d shells                    I                0
Pure/Cartesian f shells                    I                0
Highest angular momentum                   I                2
Largest degree of contraction              I                7
Shell types                                I   N=          19
           0           0           0           0           1           1
           1          -2          -2           0           0           0
           1           1           0           0           0           1
           1
Number of primitives per shell             I   N=          19
           7           7           1           1           3           1
           1           1           1           3           1           1
           1           1           3           1           1           1
           1
Shell to atom map                          I   N=          19
           1           1           1           1           1           1
           1           1           1           2           2           2
           2           2           3           3           3           3
           3
Primitive exponents                        R   N=          37
  1.17200000E+04  1.75900000E+03  4.00800000E+02  1.13700000E+02  3.70300000E+01
  1.32700000E+01  5.02500000E+00  1.17200000E+04  4.00800000E+02  1.13700000E+02
  3.70300000E+01  1.32700000E+01  5.02500000E+00  1.01300000E+00  3.02300000E-01
  7.89600000E-02  1.77000000E+01  3.85400000E+00  1.04600000E+00  2.75300000E-01
  6.85600000E-02  1.18500000E+00  3.32000000E-01  1.30100000E+01  1.96200000E+00
  4.44600000E-01  1.22000000E-01  2.97400000E-02  7.27000000E-01  1.41000000E-01
  1.30100000E+01  1.96200000E+00  4.44600000E-01  1.22000000E-01  2.97400000E-02
  7.27000000E-01  1.41000000E-01
Contraction coefficients                   R   N=          37
  7.11864434E-04  5.48520199E-03  2.79099296E-02  1.05133208E-01  2.84002490E-01
  4.51673946E-01  2.73208126E-01  7.69030046E-06  3.13484579E-04 -2.96614853E-03
 -1.08753543E-02 -1.20753817E-01 -1.06275264E-01  1.09597548E+00  1.00000000E+00
  1.00000000E+00  6.26791663E-02  3.33536566E-01  7.41239642E-01  1.00000000E+00
  1.00000000E+00  1.00000000E+00  1.00000000E+00  3.34987264E-02  2.34800801E-01
  8.13682958E-01  1.00000000E+00  1.00000000E+00  1.00000000E+00  1.00000000E+00
  3.34987264E-02  2.34800801E-01  8.13682958E-01  1.00000000E+00  1.00000000E+00
  1.00000000E+00  1.00000000E+00
Coordinates of each shell                  R   N=          57
  0.00000000E+00  0.00000000E+00  2.25076602E-01  0.00000000E+00  0.00000000E+00
  2.25076602E-01  0.00000000E+00  0.00000000E+00  2.25076602E-01  0.00000000E+00
  0.00000000E+00  2.25076602E-01  0.00000000E+00  0.00000000E+00  2.25076602E-01
  0.00000000E+00  0.00000000E+00  2.25076602E-01  0.00000000E+00  0.00000000E+00
  2.25076602E-01  0.00000000E+00  0.00000000E+00  2.25076602E-01  0.00000000E+00
  0.00000000E+00  2.25076602E-01  1.97215226E-31  1.43714410E+00 -9.00306410E-01
  1.97215226E-31  1.43714410E+00 -9.00306410E-01  1.97215226E-31  1.43714410E+00
 -9.00306410E-01  1.97215226E-31  1.43714410E+00 -9.00306410E-01  1.97215226E-31
  1.43714410E+00 -9.00306410E-01 -1.75999392E-16 -1.43714410E+00 -9.00306410E-01
 -1.75999392E-16 -1.43714410E+00 -9.00306410E-01 -1.75999392E-16 -1.43714410E+00
 -9.00306410E-01 -1.75999392E-16 -1.43714410E+00 -9.00306410E-01 -1.75999392E-16
 -1.43714410E+00 -9.00306410E-01
Constraint Structure                       R   N=           9
  0.00000000E+00  0.00000000E+00  2.25076602E-01  1.97215226E-31  1.43714410E+00
 -9.00306410E-01 -1.75999392E-16 -1.43714410E+00 -9.00306410E-01
Num ILSW                                   I              100
ILSW                                       I   N=         100
           0           0           0           0           2           0
           0           0           0           0           0          -1
           0           0           0           0           2           0
           0           0           1           0           1           0
           1           0           0           0           0           0
           0           0      100000           0          -1           0
           0           0           0           0           0           0
           0           0           0           1           1           0
           0           0           1           0           0           0
           0           0           4          41           0           0
           0           0           0           0           0           0
           0           0           0           0           0           0
           0           0           0           0           0           0
           0           0           0           0           0           0
           0           0           0           0           0           0
           0           0           0           0           0           0
           0           0           0           0
Num RLSW                                   I               41
RLSW                                       R   N=          41
  1.00000000E+00  1.00000000E+00  1.00000000E+00  1.00000000E+00  1.00000000E+00
  0.00000000E+00  0.00000000E+00  1.00000000E+00  0.00000000E+00  0.00000000E+00
  0.00000000E+00  0.00000000E+00  1.00000000E+00  0.00000000E+00  0.00000000E+00
  0.00000000E+00  0.00000000E+00  1.00000000E+00  0.00000000E+00  0.00000000E+00
  0.00000000E+00  0.00000000E+00  1.00000000E+00  0.00000000E+00  0.00000000E+00
  0.00000000E+00  0.00000000E+00  1.00000000E+00  0.00000000E+00  0.00000000E+00
  0.00000000E+00  0.00000000E+00  1.00000000E+00  0.00000000E+00  0.00000000E+00
  0.00000000E+00  0.00000000E+00  0.00000000E+00  1.00000000E+00  1.00000000E+00
  0.00000000E+00
MxBond                                     I                2
NBond                                      I   N=           3
           2           1           1
IBond                                      I   N=           6
           2           3           1           0           1           0
RBond                                      R   N=           6
  1.00000000E+00  1.00000000E+00  1.00000000E+00  0.00000000E+00  1.00000000E+00
  0.00000000E+00
Virial Ratio                               R      2.001931834803891E+00
SCF Energy                                 R     -7.604076138945827E+01
MP2 Energy                                 R     -7.626090976544712E+01
Total Energy                               R     -7.626090976544712E+01
Post-SCF wavefunction norm                 R      1.455800044120769E+00
RMS Force                                  R      4.340137601047906E-08
RMS Density                                R      3.247583023859146E-10
Job Status                                 I                1
Nuclear derivative order                   I                3
External E-field                           R   N=          35
  0.00000000E+00  0.00000000E+00  0.00000000E+00  0.00000000E+00  0.00000000E+00
  0.00000000E+00  0.00000000E+00  0.00000000E+00  0.00000000E+00  0.00000000E+00
  0.00000000E+00  0.00000000E+00  0.00000000E+00  0.00000000E+00  0.00000000E+00
  0.00000000E+00  0.00000000E+00  0.00000000E+00  0.00000000E+00  0.00000000E+00
  0.00000000E+00  0.00000000E+00  0.00000000E+00  0.00000000E+00  0.00000000E+00
  0.00000000E+00  0.00000000E+00  0.00000000E+00  0.00000000E+00  0.00000000E+00
  0.00000000E+00  0.00000000E+00  0.00000000E+00  0.00000000E+00  0.00000000E+00
IOpCl                                      I                0
IROHF                                      I                0
Alpha Orbital Energies                     R   N=          41
 -2.05790048E+01 -1.35266379E+00 -7.13318524E-01 -5.85225360E-01 -5.08916222E-01
  3.52314904E-02  5.79398183E-02  1.74098631E-01  1.97174382E-01  2.22073495E-01
  2.31909324E-01  2.87930481E-01  3.31293393E-01  3.85510388E-01  4.01584950E-01
  4.31574763E-01  5.38559937E-01  6.46034202E-01  6.58023672E-01  8.06198208E-01
  9.29204167E-01  1.10252282E+00  1.11663339E+00  1.14805918E+00  1.30153675E+00
  1.46339415E+00  1.47976345E+00  1.58184251E+00  1.99852719E+00  2.00474639E+00
  2.10560425E+00  2.35724786E+00  2.46597856E+00  2.61083870E+00  2.71073857E+00
  2.97000110E+00  3.67294336E+00  3.68917020E+00  3.70088519E+00  4.01202480E+00
  4.29228289E+00
Alpha MO coefficients                      R   N=        1681
  9.97196325E-01  1.62715701E-02 -7.25014699E-03 -4.48457975E-03  0.00000000E+00
  0.00000000E+00 -1.63039164E-03  0.00000000E+00  0.00000000E+00  1.54887850E-03
  0.00000000E+00  0.00000000E+00  6.73100538E-04  2.30901969E-06  0.00000000E+00
  0.00000000E+00 -9.26441294E-05  0.00000000E+00  9.24319012E-06  0.00000000E+00
  0.00000000E+00  2.76134776E-04  0.00000000E+00  3.54715092E-04  3.57162405E-03
  3.17317535E-04  0.00000000E+00  3.35349677E-04 -2.78286207E-04  0.00000000E+00
 -1.18061886E-03  1.01682158E-03  3.54715092E-04  3.57162405E-03  3.17317535E-04
  0.00000000E+00 -3.35349677E-04 -2.78286207E-04  0.00000000E+00  1.18061886E-03
  1.01682158E-03 -2.08888386E-01  4.48758562E-01  3.81202774E-01  5.89820229E-02
  0.00000000E+00  0.00000000E+00 -7.73639650E-02  0.00000000E+00  0.00000000E+00
  1.70088396E-02  0.00000000E+00  0.00000000E+00 -1.15032657E-02  2.82299600E-03
  0.00000000E+00  0.00000000E+00 -6.64187145E-03  0.00000000E+00 -5.94278388E-03
  0.00000000E+00  0.00000000E+00  1.89399658E-02  0.00000000E+00  2.02467170E-01
 -2.62351079E-02 -2.05362477E-03  0.00000000E+00 -3.65660664E-02  2.23403142E-02
  0.00000000E+00  5.11197914E-03 -8.07248539E-03  2.02467170E-01 -2.62351079E-02
 -2.05362477E-03  0.00000000E+00  3.65660664E-02  2.23403142E-02  0.00000000E+00
 -5.11197914E-03 -8.07248539E-03  0.00000000E+00  0.00000000E+00  0.00000000E+00
  0.00000000E+00  0.00000000E+00  4.98906843E-01  0.00000000E+00  0.00000000E+00
  1.97970077E-01  0.00000000E+00  0.00000000E+00  1.96751632E-02  0.00000000E+00
  0.00000000E+00  0.00000000E+00 -2.84017829E-02  0.00000000E+00  0.00000000E+00
  0.00000000E+00  0.00000000E+00  3.01091421E-02  0.00000000E+00  0.00000000E+00
  3.46926124E-01  8.03093192E-02 -4.74274600E-03  0.00000000E+00 -2.57734683E-02
  3.47523427E-02  0.00000000E+00 -3.39198157E-03  9.81425506E-04 -3.46926124E-01
 -8.03093192E-02  4.74274600E-03  0.00000000E+00 -2.57734683E-02 -3.47523427E-02
  0.00000000E+00 -3.39198157E-03 -9.81425506E-04 -6.74268153E-02  1.51967937E-01
  3.16440201E-01  7.61939922E-02  0.00000000E+00  0.00000000E+00  5.47363058E-01
  0.00000000E+00  0.00000000E+00  3.23900775E-01  0.00000000E+00  0.00000000E+00
  3.88140103E-02 -1.45664161E-02  0.00000000E+00  0.00000000E+00  4.37942800E-03
  0.00000000E+00 -1.59693244E-02  0.00000000E+00  0.00000000E+00 -1.11819969E-02
  0.00000000E+00 -2.12572819E-01 -5.92314448E-02 -3.58066712E-03  0.00000000E+00
  3.08689059E-02 -1.29041440E-03  0.00000000E+00  2.01245704E-03  1.32970974E-02
 -2.12572819E-01 -5.92314448E-02 -3.58066712E-03  0.00000000E+00 -3.08689059E-02
 -1.29041440E-03  0.00000000E+00 -2.01245704E-03  1.32970974E-02  0.00000000E+00
  0.00000000E+00  0.00000000E+00  0.00000000E+00  6.28787964E-01  0.00000000E+00
  0.00000000E+00  4.50508638E-01  0.00000000E+00  0.00000000E+00  6.89252706E-02
  0.00000000E+00  0.00000000E+00  0.00000000E+00 -1.37975007E-02  0.00000000E+00
  0.00000000E+00  0.00000000E+00  0.00000000E+00 -1.93901773E-02  0.00000000E+00
  0.00000000E+00  0.00000000E+00  0.00000000E+00  0.00000000E+00  0.00000000E+00
  2.58338785E-02  0.00000000E+00  0.00000000E+00  1.59767080E-02  0.00000000E+00
  0.00000000E+00  0.00000000E+00  0.00000000E+00  0.00000000E+00  2.58338785E-02
  0.00000000E+00  0.00000000E+00  1.59767080E-02  0.00000000E+00  0.00000000E+00
 -2.79301091E-02  5.33354621E-02  2.18599469E-01  1.54643285E+00  0.00000000E+00
  0.00000000E+00 -6.10327420E-02  0.00000000E+00  0.00000000E+00 -1.33530641E-01
  0.00000000E+00  0.00000000E+00 -2.15796768E-01  2.59075883E-03  0.00000000E+00
  0.00000000E+00 -4.99070126E-05  0.00000000E+00 -1.41344870E-03  0.00000000E+00
  0.00000000E+00 -1.04312551E-02  0.00000000E+00 -1.96825970E-02 -4.73175883E-01
 -8.34072575E-01  0.00000000E+00 -4.65142141E-03  2.32972465E-03  0.00000000E+00
  8.19827152E-02 -7.71110661E-02 -1.96825970E-02 -4.73175883E-01 -8.34072575E-01
  0.00000000E+00  4.65142141E-03  2.32972465E-03  0.00000000E+00 -8.19827152E-02
 -7.71110661E-02  0.00000000E+00  0.00000000E+00  0.00000000E+00  0.00000000E+00
  0.00000000E+00 -6.71787848E-02  0.00000000E+00  0.00000000E+00 -1.37945578E-01
  0.00000000E+00  0.00000000E+00 -8.22341881E-01  0.00000000E+00  0.00000000E+00
  0.00000000E+00  9.69580365E-04  0.00000000E+00  0.00000000E+00  0.00000000E+00
  0.00000000E+00  1.90572678E-02  0.00000000E+00  0.00000000E+00 -5.54099066E-04
  5.39546694E-01  2.94882141E+00  0.00000000E+00  7.26519416E-04 -4.23042351E-03
  0.00000000E+00 -1.01757860E-01  1.27975021E-01  5.54099066E-04 -5.39546694E-01
 -2.94882141E+00  0.00000000E+00  7.26519416E-04  4.23042351E-03  0.00000000E+00
 -1.01757860E-01 -1.27975021E-01  7.57395495E-03 -8.35536428E-02  3.61681469E-01
  4.10201045E+00  0.00000000E+00  0.00000000E+00  1.79625154E-01  0.00000000E+00
  0.00000000E+00  8.56795421E-03  0.00000000E+00  0.00000000E+00 -1.91624496E+00
 -1.13031826E-02  0.00000000E+00  0.00000000E+00  3.12903478E-03  0.00000000E+00
  3.88807978E-02  0.00000000E+00  0.00000000E+00 -4.91693912E-02  0.00000000E+00
 -1.18501830E-02 -1.76607525E+00 -6.28375828E-01  0.00000000E+00  3.36185078E-02
 -2.39016969E-02  0.00000000E+00  3.32507056E-01 -1.62600331E-01 -1.18501830E-02
 -1.76607525E+00 -6.28375828E-01  0.00000000E+00 -3.36185078E-02 -2.39016969E-02
  0.00000000E+00 -3.32507056E-01 -1.62600331E-01  0.00000000E+00  0.00000000E+00
  0.00000000E+00  0.00000000E+00 -1.74854617E-01  0.00000000E+00  0.00000000E+00
 -2.50140218E-01  0.00000000E+00  0.00000000E+00  1.43734132E+00  0.00000000E+00
  0.00000000E+00  0.00000000E+00  1.70187355E-02  0.00000000E+00  0.00000000E+00
  0.00000000E+00  0.00000000E+00 -5.77801181E-02  0.00000000E+00  0.00000000E+00
  0.00000000E+00  0.00000000E+00  0.00000000E+00  0.00000000E+00  9.35831452E-03
  0.00000000E+00  0.00000000E+00 -2.78447044E-01  0.00000000E+00  0.00000000E+00
  0.00000000E+00  0.00000000E+00  0.00000000E+00  9.35831452E-03  0.00000000E+00
  0.00000000E+00 -2.78447044E-01  0.00000000E+00  0.00000000E+00  6.04098753E-02
 -1.82737074E-01 -1.81408589E-02  2.75321863E+00  0.00000000E+00  0.00000000E+00
  5.50765894E-02  0.00000000E+00  0.00000000E+00 -1.66757088E-01  0.00000000E+00
  0.00000000E+00  5.24136612E-01  7.50871134E-03  0.00000000E+00  0.00000000E+00
 -3.59036775E-03  0.00000000E+00 -4.19722571E-02  0.00000000E+00  0.00000000E+00
 -3.06737089E-02  0.00000000E+00  4.50597191E-02 -4.00118202E-01 -6.68343626E-01
  0.00000000E+00  1.90376048E-02 -1.09298598E-02  0.00000000E+00  4.21772626E-01
 -4.75713481E-01  4.50597191E-02 -4.00118202E-01 -6.68343626E-01  0.00000000E+00
 -1.90376048E-02 -1.09298598E-02  0.00000000E+00 -4.21772626E-01 -4.75713481E-01
  0.00000000E+00  0.00000000E+00  0.00000000E+00  0.00000000E+00  0.00000000E+00
 -1.69633333E-01  0.00000000E+00  0.00000000E+00  2.53843223E-01  0.00000000E+00
  0.00000000E+00  3.08918798E+00  0.00000000E+00  0.00000000E+00  0.00000000E+00
  9.02639182E-03  0.00000000E+00  0.00000000E+00  0.00000000E+00  0.00000000E+00
 -1.00383790E-01  0.00000000E+00  0.00000000E+00 -7.74801737E-02 -2.63479054E+00
 -2.67870449E+00  0.00000000E+00  3.86045016E-02 -2.23876854E-02  0.00000000E+00
  5.90255998E-01 -5.59923899E-01  7.74801737E-02  2.63479054E+00  2.67870449E+00
  0.00000000E+00  3.86045016E-02  2.23876854E-02  0.00000000E+00  5.90255998E-01
  5.59923899E-01  0.00000000E+00  0.00000000E+00  0.00000000E+00  0.00000000E+00
  0.00000000E+00 -2.25144023E-01  0.00000000E+00  0.00000000E+00 -2.71396197E-01
  0.00000000E+00  0.00000000E+00 -9.02722421E-01  0.00000000E+00  0.00000000E+00
  0.00000000E+00 -1.59902358E-02  0.00000000E+00  0.00000000E+00  0.00000000E+00
  0.00000000E+00  6.93147161E-02  0.00000000E+00  0.00000000E+00  1.30077527E-01
  9.73765502E-01 -3.05537395E-01  0.00000000E+00 -1.34727040E-02 -3.07810655E-04
  0.00000000E+00  4.29307419E-01 -4.72167045E-01 -1.30077527E-01 -9.73765502E-01
  3.05537395E-01  0.00000000E+00 -1.34727040E-02  3.07810655E-04  0.00000000E+00
  4.29307419E-01  4.72167045E-01 -8.97873105E-03 -8.69167411E-03  2.22560912E-01
  4.35233353E+00  0.00000000E+00  0.00000000E+00 -9.05720420E-02  0.00000000E+00
  0.00000000E+00 -2.40709043E-01  0.00000000E+00  0.00000000E+00 -5.99235730E-01
  2.47826034E-02  0.00000000E+00  0.00000000E+00  2.49491358E-02  0.00000000E+00
 -8.50980506E-02  0.00000000E+00  0.00000000E+00 -1.03608223E-01  0.00000000E+00
 -1.11857903E-01 -2.34861646E+00 -2.56600773E-01  0.00000000E+00  9.90227125E-03
 -2.91197246E-02  0.00000000E+00 -3.68306565E-01 -4.71465853E-01 -1.11857903E-01
 -2.34861646E+00 -2.56600773E-01  0.00000000E+00 -9.90227125E-03 -2.91197246E-02
  0.00000000E+00  3.68306565E-01 -4.71465853E-01  0.00000000E+00  0.00000000E+00
  0.00000000E+00  0.00000000E+00  0.00000000E+00  0.00000000E+00  0.00000000E+00
  0.00000000E+00  0.00000000E+00  0.00000000E+00  0.00000000E+00  0.00000000E+00
  0.00000000E+00  0.00000000E+00  0.00000000E+00  0.00000000E+00  0.00000000E+00
  3.90488456E-02  0.00000000E+00  0.00000000E+00  0.00000000E+00  0.00000000E+00
 -1.28291599E-01  0.00000000E+00  0.00000000E+00  0.00000000E+00  1.84459155E-03
  0.00000000E+00  0.00000000E+00  1.13586385E+00  0.00000000E+00  0.00000000E+00
  0.00000000E+00  0.00000000E+00  0.00000000E+00 -1.84459155E-03  0.00000000E+00
  0.00000000E+00 -1.13586385E+00  0.00000000E+00  0.00000000E+00  6.32404185E-03
 -1.59301665E-02 -1.92029198E-02  4.40273174E+00  0.00000000E+00  0.00000000E+00
 -1.88117150E-01  0.00000000E+00  0.00000000E+00 -7.70770399E-01  0.00000000E+00
  0.00000000E+00 -1.82331710E+00 -1.97491724E-02  0.00000000E+00  0.00000000E+00
 -9.83421371E-03  0.00000000E+00  1.03685747E-01  0.00000000E+00  0.00000000E+00
  1.94932062E-02  0.00000000E+00 -6.18462078E-02 -2.34047160E+00 -2.87254140E-01
  0.00000000E+00  4.81623222E-02 -4.90823327E-03  0.00000000E+00  3.51477897E-01
  6.86203878E-01 -6.18462078E-02 -2.34047160E+00 -2.87254140E-01  0.00000000E+00
 -4.81623222E-02 -4.90823327E-03  0.00000000E+00 -3.51477897E-01  6.86203878E-01
  0.00000000E+00  0.00000000E+00  0.00000000E+00  0.00000000E+00 -1.49389995E-01
  0.00000000E+00  0.00000000E+00 -6.45036181E-01  0.00000000E+00  0.00000000E+00
 -1.15904068E+00  0.00000000E+00  0.00000000E+00  0.00000000E+00 -2.35958280E-02
  0.00000000E+00  0.00000000E+00  0.00000000E+00  0.00000000E+00  7.25772937E-02
  0.00000000E+00  0.00000000E+00  0.00000000E+00  0.00000000E+00  0.00000000E+00
  0.00000000E+00  1.02812404E-03  0.00000000E+00  0.00000000E+00  1.19087078E+00
  0.00000000E+00  0.00000000E+00  0.00000000E+00  0.00000000E+00  0.00000000E+00
  1.02812404E-03  0.00000000E+00  0.00000000E+00  1.19087078E+00  0.00000000E+00
  0.00000000E+00  0.00000000E+00  0.00000000E+00  0.00000000E+00  0.00000000E+00
  0.00000000E+00 -7.91361236E-02  0.00000000E+00  0.00000000E+00 -1.30906374E-01
  0.00000000E+00  0.00000000E+00 -1.91910919E+00  0.00000000E+00  0.00000000E+00
  0.00000000E+00  1.73143479E-02  0.00000000E+00  0.00000000E+00  0.00000000E+00
  0.00000000E+00 -4.11696654E-02  0.00000000E+00  0.00000000E+00 -3.22486119E-02
 -1.44026620E+00  7.45478837E-01  0.00000000E+00 -2.25944715E-02 -2.38407541E-02
  0.00000000E+00  2.30649455E+00  1.04325802E+00  3.22486119E-02  1.44026620E+00
 -7.45478837E-01  0.00000000E+00 -2.25944715E-02  2.38407541E-02  0.00000000E+00
  2.30649455E+00 -1.04325802E+00 -1.17454117E-01  3.14761433E-02  2.77543729E+00
  5.80841597E+00  0.00000000E+00  0.00000000E+00 -2.02070178E-01  0.00000000E+00
  0.00000000E+00 -6.11351435E-01  0.00000000E+00  0.00000000E+00 -6.92046702E-01
  9.40879524E-03  0.00000000E+00  0.00000000E+00 -7.64061192E-03  0.00000000E+00
 -3.33033740E-03  0.00000000E+00  0.00000000E+00  4.89687937E-02  0.00000000E+00
 -1.53174249E-01 -3.42555211E+00 -5.56407299E-01  0.00000000E+00 -8.03828066E-03
 -1.19965591E-03  0.00000000E+00  1.32762744E+00 -1.16394162E+00 -1.53174249E-01
 -3.42555211E+00 -5.56407299E-01  0.00000000E+00  8.03828066E-03 -1.19965591E-03
  0.00000000E+00 -1.32762744E+00 -1.16394162E+00  0.00000000E+00  0.00000000E+00
  0.00000000E+00  0.00000000E+00  0.00000000E+00 -2.74768282E-01  0.00000000E+00
  0.00000000E+00 -1.78913411E+00  0.00000000E+00  0.00000000E+00 -2.46189913E+00
  0.00000000E+00  0.00000000E+00  0.00000000E+00  2.38700245E-02  0.00000000E+00
  0.00000000E+00  0.00000000E+00  0.00000000E+00  1.03089862E-01  0.00000000E+00
  0.00000000E+00  1.21281414E-01  8.29808950E+00  1.40427164E+00  0.00000000E+00
 -2.41210829E-02  4.17728185E-02  0.00000000E+00 -3.16823032E+00  1.69112079E+00
 -1.21281414E-01 -8.29808950E+00 -1.40427164E+00  0.00000000E+00 -2.41210829E-02
 -4.17728185E-02  0.00000000E+00 -3.16823032E+00 -1.69112079E+00  0.00000000E+00
  0.00000000E+00  0.00000000E+00  0.00000000E+00  0.00000000E+00  2.59869492E-01
  0.00000000E+00  0.00000000E+00 -4.15670647E-01  0.00000000E+00  0.00000000E+00
 -1.24549114E+00  0.00000000E+00  0.00000000E+00  0.00000000E+00  5.70825372E-02
  0.00000000E+00  0.00000000E+00  0.00000000E+00  0.00000000E+00  7.07894905E-01
  0.00000000E+00  0.00000000E+00 -4.24791864E-01  3.04314282E+00  2.18515131E-01
  0.00000000E+00 -1.28875902E-01  1.60167768E-01  0.00000000E+00 -5.42570821E-01
 -1.99992163E-02  4.24791864E-01 -3.04314282E+00 -2.18515131E-01  0.00000000E+00
 -1.28875902E-01 -1.60167768E-01  0.00000000E+00 -5.42570821E-01  1.99992163E-02
  2.19138229E-03 -2.00409799E-01  1.08288110E+00  4.78168792E+00  0.00000000E+00
  0.00000000E+00  8.26997955E-02  0.00000000E+00  0.00000000E+00 -2.79520274E-01
  0.00000000E+00  0.00000000E+00 -1.23893089E+00  5.13921737E-04  0.00000000E+00
  0.00000000E+00 -3.81104568E-02  0.00000000E+00  1.15174247E-01  0.00000000E+00
  0.00000000E+00 -7.38388989E-01  0.00000000E+00  4.99764691E-01 -3.28569184E+00
 -2.05060172E-01  0.00000000E+00  1.81870830E-01 -9.15490576E-02  0.00000000E+00
  1.82821723E-01 -3.16152147E-01  4.99764691E-01 -3.28569184E+00 -2.05060172E-01
  0.00000000E+00 -1.81870830E-01 -9.15490576E-02  0.00000000E+00 -1.82821723E-01
 -3.16152147E-01  0.00000000E+00  0.00000000E+00  0.00000000E+00  0.00000000E+00
 -1.89722817E-01  0.00000000E+00  0.00000000E+00 -3.02884592E-02  0.00000000E+00
  0.00000000E+00 -7.25273573E-01  0.00000000E+00  0.00000000E+00  0.00000000E+00
 -2.11387511E-02  0.00000000E+00  0.00000000E+00  0.00000000E+00  0.00000000E+00
  1.12462673E+00  0.00000000E+00  0.00000000E+00  0.00000000E+00  0.00000000E+00
  0.00000000E+00  0.00000000E+00 -1.76563425E-02  0.00000000E+00  0.00000000E+00
  5.82404529E-01  0.00000000E+00  0.00000000E+00  0.00000000E+00  0.00000000E+00
  0.00000000E+00 -1.76563425E-02  0.00000000E+00  0.00000000E+00  5.82404529E-01
  0.00000000E+00  0.00000000E+00  1.53731110E-02 -1.80590729E-02 -5.58066503E-01
 -8.75089968E-01  0.00000000E+00  0.00000000E+00 -1.29126908E-01  0.00000000E+00
  0.00000000E+00  9.18349277E-02  0.00000000E+00  0.00000000E+00 -4.86339453E-01
 -1.78724708E-02  0.00000000E+00  0.00000000E+00  2.01621930E-02  0.00000000E+00
  1.14105251E+00  0.00000000E+00  0.00000000E+00  7.91538309E-02  0.00000000E+00
 -1.03303913E-01  6.34458717E-01  5.65718135E-02  0.00000000E+00 -9.14525055E-02
 -2.52754047E-03  0.00000000E+00  7.74482634E-02  6.63646059E-01 -1.03303913E-01
  6.34458717E-01  5.65718135E-02  0.00000000E+00  9.14525055E-02 -2.52754047E-03
  0.00000000E+00 -7.74482634E-02  6.63646059E-01  0.00000000E+00  0.00000000E+00
  0.00000000E+00  0.00000000E+00  0.00000000E+00  0.00000000E+00  0.00000000E+00
  0.00000000E+00  0.00000000E+00  0.00000000E+00  0.00000000E+00  0.00000000E+00
  0.00000000E+00  0.00000000E+00  0.00000000E+00  0.00000000E+00  0.00000000E+00
 -1.83004284E-02  0.00000000E+00  0.00000000E+00  0.00000000E+00  0.00000000E+00
  1.23290727E+00  0.00000000E+00  0.00000000E+00  0.00000000E+00  3.77230007E-02
  0.00000000E+00  0.00000000E+00 -7.30536609E-01  0.00000000E+00  0.00000000E+00
  0.00000000E+00  0.00000000E+00  0.00000000E+00 -3.77230007E-02  0.00000000E+00
  0.00000000E+00  7.30536609E-01  0.00000000E+00  0.00000000E+00 -9.61051135E-03
 -2.14127060E-01  1.57364419E+00  3.20390933E+00  0.00000000E+00  0.00000000E+00
  5.26823453E-01  0.00000000E+00  0.00000000E+00 -1.12969297E+00  0.00000000E+00
  0.00000000E+00 -7.11557924E-01  6.73819208E-03  0.00000000E+00  0.00000000E+00
 -9.38300289E-02  0.00000000E+00  3.17039012E-01  0.00000000E+00  0.00000000E+00
  7.99067935E-01  0.00000000E+00  5.00020667E-01 -2.41913872E+00 -1.48908516E-01
  0.00000000E+00  3.26719810E-01 -1.85823865E-01  0.00000000E+00  6.56878066E-01
 -1.13170526E-01  5.00020667E-01 -2.41913872E+00 -1.48908516E-01  0.00000000E+00
 -3.26719810E-01 -1.85823865E-01  0.00000000E+00 -6.56878066E-01 -1.13170526E-01
  0.00000000E+00  0.00000000E+00  0.00000000E+00  0.00000000E+00  0.00000000E+00
  5.93702855E-01  0.00000000E+00  0.00000000E+00 -1.93799294E+00  0.00000000E+00
  0.00000000E+00 -9.92529026E-01  0.00000000E+00  0.00000000E+00  0.00000000E+00
  1.11436512E-01  0.00000000E+00  0.00000000E+00  0.00000000E+00  0.00000000E+00
 -7.66825631E-01  0.00000000E+00  0.00000000E+00 -3.53343559E-01  4.32158743E+00
  2.19729835E-01  0.00000000E+00 -2.77984786E-01  2.99809757E-01  0.00000000E+00
 -1.21755979E+00  1.03454488E+00  3.53343559E-01 -4.32158743E+00 -2.19729835E-01
  0.00000000E+00 -2.77984786E-01 -2.99809757E-01  0.00000000E+00 -1.21755979E+00
 -1.03454488E+00  0.00000000E+00  0.00000000E+00  0.00000000E+00  0.00000000E+00
 -9.82195582E-01  0.00000000E+00  0.00000000E+00  1.59851020E+00  0.00000000E+00
  0.00000000E+00  1.08932055E-01  0.00000000E+00  0.00000000E+00  0.00000000E+00
 -1.94937396E-03  0.00000000E+00  0.00000000E+00  0.00000000E+00  0.00000000E+00
 -3.90394056E-01  0.00000000E+00  0.00000000E+00  0.00000000E+00  0.00000000E+00
  0.00000000E+00  0.00000000E+00 -6.55341781E-03  0.00000000E+00  0.00000000E+00
 -5.51508504E-01  0.00000000E+00  0.00000000E+00  0.00000000E+00  0.00000000E+00
  0.00000000E+00 -6.55341781E-03  0.00000000E+00  0.00000000E+00 -5.51508504E-01
  0.00000000E+00  0.00000000E+00  5.39931314E-02 -5.14392710E-01  2.70897959E-01
 -1.63268098E+00  0.00000000E+00  0.00000000E+00 -7.09162776E-01  0.00000000E+00