Water opt                                                               
Freq      RB3LYP                                                      6-311++G(d,p)       
Number of atoms                            I                3
Info1-9                                    I   N=           9
          17          17        1002           0           0         100
           6          18        -502
Full Title                                 C   N=           1
Water opt   
Route                                      C   N=           6
#B3LYP/6-311++(d,p) #Density=current #Opt=VeryTight #Freq=An
h           
Charge                                     I                0
Multiplicity                               I                1
Number of electrons                        I               10
Number of alpha electrons                  I                5
Number of beta electrons                   I                5
Number of basis functions                  I               36
Number of independent functions            I               36
Number of point charges in /Mol/           I                0
Number of translation vectors              I                0
Atomic numbers                             I   N=           3
           8           1           1
Nuclear charges                            R   N=           3
  8.00000000E+00  1.00000000E+00  1.00000000E+00
Current cartesian coordinates              R   N=           9
  3.72683778E-17  2.21205137E-01 -2.59697142E-33  1.44292812E+00 -8.84820345E-01
  5.84499812E-31 -1.44292812E+00 -8.84820751E-01 -2.95844357E-31
Number of symbols in /Mol/                 I                0
Int Atom Types                             I   N=           3
           0           0           0
Force Field                                I                0
Atom Types                                 C   N=           3
                                    
MM charges                                 R   N=           3
  0.00000000E+00  0.00000000E+00  0.00000000E+00
Integer atomic weights                     I   N=           3
          16           1           1
Real atomic weights                        R   N=           3
  1.59949146E+01  1.00782504E+00  1.00782504E+00
Atom fragment info                         I   N=           3
           0           0           0
Atom residue num                           I   N=           3
           0           0           0
Nuclear spins                              I   N=           3
           0           1           1
Nuclear ZEff                               R   N=           3
 -5.60000000E+00 -1.00000000E+00 -1.00000000E+00
Nuclear ZNuc                               R   N=           3
  8.00000000E+00  1.00000000E+00  1.00000000E+00
Nuclear QMom                               R   N=           3
  0.00000000E+00  0.00000000E+00  0.00000000E+00
Nuclear GFac                               R   N=           3
  0.00000000E+00  2.79284600E+00  2.79284600E+00
MicOpt                                     I   N=           3
          -1          -1          -1
Number of residues                         I                0
Number of secondary structures             I                0
Redundant internal dimensions              I   N=           4
           3           2           1           0
Redundant internal coordinate indices      I   N=          12
           1           2           0           0           1           3
           0           0           2           1           3           0
Redundant internal coordinates             R   N=           3
  1.81805773E+00  1.81805798E+00  1.83361858E+00
ZRed-IntVec                                I   N=           3
           0           0           0
ZRed-FPVec                                 R   N=           3
  0.00000000E+00  0.00000000E+00  0.00000000E+00
ZRed-Constraint1                           R   N=           3
  1.81805773E+00  1.81805798E+00  1.83361858E+00
ZRed-Constraint2                           R   N=           3
  1.76232333E+00  1.67996224E+00  1.82485478E+00
SymInf integers                            I   N=          26
           1           2           1           1           1           1
           1          -1           0           0           0           0
           0           0           0           0           0           0
           0           0           0           0           0           0
           0           0
RotTr to input orientation                 R   N=          12
  6.62550305E-16  9.91392673E-01 -1.30921990E-01 -9.53952623E-18  1.30921990E-01
  9.91392673E-01  1.00000000E+00 -6.55598584E-16  9.61998210E-17 -8.30282046E-20
  4.58390174E-03 -2.33247608E-02
Number of contracted shells                I               16
Number of primitive shells                 I               27
Pure/Cartesian d shells                    I                0
Pure/Cartesian f shells                    I                0
Highest angular momentum                   I                2
Largest degree of contraction              I                6
Shell types                                I   N=          16
           0          -1          -1          -1          -1          -2
           0           0           0           0           1           0
           0           0           0           1
Number of primitives per shell             I   N=          16
           6           3           1           1           1           1
           3           1           1           1           1           3
           1           1           1           1
Shell to atom map                          I   N=          16
           1           1           1           1           1           1
           2           2           2           2           2           3
           3           3           3           3
Primitive exponents                        R   N=          27
  8.58850000E+03  1.29723000E+03  2.99296000E+02  8.73771000E+01  2.56789000E+01
  3.74004000E+00  4.21175000E+01  9.62837000E+00  2.85332000E+00  9.05661000E-01
  2.55611000E-01  8.45000000E-02  1.29200000E+00  3.38650000E+01  5.09479000E+00
  1.15879000E+00  3.25840000E-01  1.02741000E-01  3.60000000E-02  7.50000000E-01
  3.38650000E+01  5.09479000E+00  1.15879000E+00  3.25840000E-01  1.02741000E-01
  3.60000000E-02  7.50000000E-01
Contraction coefficients                   R   N=          27
  1.89515008E-03  1.43859006E-02  7.07320031E-02  2.40001011E-01  5.94797026E-01
  2.80802012E-01  1.13889012E-01  9.20811101E-01 -3.27447036E-03  1.00000000E+00
  1.00000000E+00  1.00000000E+00  1.00000000E+00  2.54938145E-02  1.90373109E-01
  8.52161486E-01  1.00000000E+00  1.00000000E+00  1.00000000E+00  1.00000000E+00
  2.54938145E-02  1.90373109E-01  8.52161486E-01  1.00000000E+00  1.00000000E+00
  1.00000000E+00  1.00000000E+00
P(S=P) Contraction coefficients            R   N=          27
  0.00000000E+00  0.00000000E+00  0.00000000E+00  0.00000000E+00  0.00000000E+00
  0.00000000E+00  3.65113974E-02  2.37152983E-01  8.19701941E-01  1.00000000E+00
  1.00000000E+00  1.00000000E+00  0.00000000E+00  0.00000000E+00  0.00000000E+00
  0.00000000E+00  0.00000000E+00  0.00000000E+00  0.00000000E+00  0.00000000E+00
  0.00000000E+00  0.00000000E+00  0.00000000E+00  0.00000000E+00  0.00000000E+00
  0.00000000E+00  0.00000000E+00
Coordinates of each shell                  R   N=          48
  3.03294839E-17  2.21205137E-01 -2.59697142E-33  3.03294839E-17  2.21205137E-01
 -2.59697142E-33  3.03294839E-17  2.21205137E-01 -2.59697142E-33  3.03294839E-17
  2.21205137E-01 -2.59697142E-33  3.03294839E-17  2.21205137E-01 -2.59697142E-33
  3.03294839E-17  2.21205137E-01 -2.59697142E-33  1.44292812E+00 -8.84820345E-01
  3.65923935E-31  1.44292812E+00 -8.84820345E-01  3.65923935E-31  1.44292812E+00
 -8.84820345E-01  3.65923935E-31  1.44292812E+00 -8.84820345E-01  3.65923935E-31
  1.44292812E+00 -8.84820345E-01  3.65923935E-31 -1.44292812E+00 -8.84820751E-01
 -2.46540550E-31 -1.44292812E+00 -8.84820751E-01 -2.46540550E-31 -1.44292812E+00
 -8.84820751E-01 -2.46540550E-31 -1.44292812E+00 -8.84820751E-01 -2.46540550E-31
 -1.44292812E+00 -8.84820751E-01 -2.46540550E-31
Num ILSW                                   I              100
ILSW                                       I   N=         100
           0           0           0           1           2           0
           0           0           0           0         402          -1
           5           0           0           0           2           0
           0           0           1           0           1           0
           1           0           0           0           0           0
           0           0      100000           0          -1           0
           0           0           0           0           0           0
           0           0           0           1           0           0
           0 -2000000000           1           0           0           0
           0           0           4          52           0           0
           0           0           5           0           0           0
           0           0           0           0           0           1
           0           0           0           0           0           0
           0           0           0           0           0           0
           0           0           0           0           0           0
           0           0           0           0           0           0
           0           0           0           0
Num RLSW                                   I               52
RLSW                                       R   N=          52
  8.00000000E-01  7.20000000E-01  1.00000000E+00  8.10000000E-01  2.00000000E-01
  0.00000000E+00  0.00000000E+00  1.00000000E+00  0.00000000E+00  0.00000000E+00
  0.00000000E+00  0.00000000E+00  1.00000000E+00  0.00000000E+00  0.00000000E+00
  0.00000000E+00  0.00000000E+00  1.00000000E+00  0.00000000E+00  0.00000000E+00
  0.00000000E+00  0.00000000E+00  1.00000000E+00  0.00000000E+00  0.00000000E+00
  0.00000000E+00  0.00000000E+00  1.00000000E+00  0.00000000E+00  0.00000000E+00
  0.00000000E+00  0.00000000E+00  1.00000000E+00  0.00000000E+00  0.00000000E+00
  0.00000000E+00  0.00000000E+00  0.00000000E+00  1.00000000E+00  1.00000000E+00
  0.00000000E+00  1.00000000E+00  0.00000000E+00  0.00000000E+00  0.00000000E+00
  0.00000000E+00  0.00000000E+00  0.00000000E+00  0.00000000E+00  0.00000000E+00
  0.00000000E+00  0.00000000E+00
MxBond                                     I                2
NBond                                      I   N=           3
           2           1           1
IBond                                      I   N=           6
           2           3           1           0           1           0
RBond                                      R   N=           6
  1.00000000E+00  1.00000000E+00  1.00000000E+00  0.00000000E+00  1.00000000E+00
  0.00000000E+00
Virial Ratio                               R      2.003062345760454E+00
SCF Energy                                 R     -7.645853198981503E+01
Total Energy                               R     -7.645853198981503E+01
RMS Force                                  R      1.405650692144378E-07
RMS Density                                R      1.970380700355380E-09
NImag                                      I                0
Job Status                                 I                1
Nuclear derivative order                   I                3
Thermal Energy                             R     -7.643441309313536E+01
Thermal Enthalpy                           R     -7.643346890832171E+01
Thermal Free Energy                        R     -7.645554591783620E+01
External E-field                           R   N=          35
  0.00000000E+00  0.00000000E+00  0.00000000E+00  0.00000000E+00  0.00000000E+00
  0.00000000E+00  0.00000000E+00  0.00000000E+00  0.00000000E+00  0.00000000E+00
  0.00000000E+00  0.00000000E+00  0.00000000E+00  0.00000000E+00  0.00000000E+00
  0.00000000E+00  0.00000000E+00  0.00000000E+00  0.00000000E+00  0.00000000E+00
  0.00000000E+00  0.00000000E+00  0.00000000E+00  0.00000000E+00  0.00000000E+00
  0.00000000E+00  0.00000000E+00  0.00000000E+00  0.00000000E+00  0.00000000E+00
  0.00000000E+00  0.00000000E+00  0.00000000E+00  0.00000000E+00  0.00000000E+00
IOpCl                                      I                0
IROHF                                      I                0
Alpha Orbital Energies                     R   N=          36
 -1.91333251E+01 -1.02327467E+00 -5.43204809E-01 -3.96777272E-01 -3.22955508E-01
 -2.33226383E-02  2.92166844E-02  1.37926747E-01  1.51231837E-01  1.52929613E-01
  1.54539316E-01  2.20305938E-01  2.25218717E-01  4.97900455E-01  5.45037811E-01
  9.54390811E-01  9.92927251E-01  1.00331824E+00  1.23069215E+00  1.25032056E+00
  1.35213331E+00  1.45957941E+00  1.65816797E+00  1.97974072E+00  2.11839999E+00
  2.39577745E+00  2.56531000E+00  3.08609013E+00  3.13726349E+00  3.30360852E+00
  3.66826570E+00  3.88314081E+00  4.92141712E+00  5.29830541E+00  5.61353960E+00
  4.98539267E+01
Alpha MO coefficients                      R   N=        1296
  5.51324590E-01  4.69791765E-01  1.66445389E-10 -1.31101473E-03  0.00000000E+00
  1.28962376E-02  5.80395008E-10 -3.48138641E-04  0.00000000E+00 -5.14747845E-03
  3.26389463E-10 -3.20304998E-04  0.00000000E+00  4.85686307E-03 -5.75004339E-11
 -6.21455268E-04  0.00000000E+00 -3.41488880E-04  0.00000000E+00  0.00000000E+00
  1.51539782E-04 -2.56233761E-10 -5.91535483E-05 -4.88142819E-04 -9.71241524E-04
 -5.78559309E-04  8.01032840E-04 -6.12988328E-04  0.00000000E+00 -5.91532185E-05
 -4.88141749E-04 -9.71241898E-04 -5.78559043E-04 -8.01032024E-04 -6.12987884E-04
  0.00000000E+00 -1.16270837E-01 -1.86073805E-01  2.03995275E-08 -5.39832774E-02
  0.00000000E+00  5.41295402E-01  2.79750480E-08 -8.24177915E-02  0.00000000E+00
  3.59719869E-01  8.64259153E-09 -2.83761251E-02  0.00000000E+00 -9.32080817E-03
 -4.53746448E-11  3.56214700E-05  0.00000000E+00 -9.57559222E-03  0.00000000E+00
  0.00000000E+00  1.31355306E-03 -3.05996872E-09  9.89958421E-02  8.40176397E-02
 -3.47531369E-04  6.00262394E-03 -2.29467449E-02  1.26568264E-02  0.00000000E+00
  9.89958037E-02  8.40176201E-02 -3.47530795E-04  6.00262156E-03  2.29467410E-02
  1.26568291E-02  0.00000000E+00  8.06135604E-09  1.32029353E-08  2.42148025E-01
  7.23192031E-09  0.00000000E+00 -4.07521635E-08  3.46834093E-01  1.35579992E-08
  0.00000000E+00 -6.37979306E-08  2.03912033E-01  1.22027690E-08  0.00000000E+00
 -7.54672559E-09  1.53649847E-02  2.52738856E-10  0.00000000E+00 -1.54426106E-09
  0.00000000E+00  0.00000000E+00  5.30586990E-09 -2.44273533E-02  1.53911078E-01
  2.05788551E-01  5.11864726E-02  8.83738586E-03 -1.44179595E-02  2.31859606E-02
  0.00000000E+00 -1.53911068E-01 -2.05788553E-01 -5.11864783E-02 -8.83738677E-03
 -1.44179608E-02 -2.31859651E-02  0.00000000E+00 -4.39839214E-02 -7.17952539E-02
 -1.62806815E-08  2.61789376E-01  0.00000000E+00  2.18614754E-01 -2.01199655E-08
  3.72262129E-01  0.00000000E+00  3.21511140E-01 -1.29788503E-08  2.83920582E-01
  0.00000000E+00  4.10045518E-02 -6.03179961E-09  7.69862686E-02  0.00000000E+00
  9.69335395E-03  0.00000000E+00  0.00000000E+00  1.33671134E-02  3.11151009E-09
 -8.79115377E-02 -1.42924658E-01 -3.50322011E-02 -1.36750880E-03  2.77627130E-02
  1.44270230E-02  0.00000000E+00 -8.79115477E-02 -1.42924680E-01 -3.50322230E-02
 -1.36751150E-03 -2.77627151E-02  1.44270119E-02  0.00000000E+00  0.00000000E+00
  0.00000000E+00  0.00000000E+00  0.00000000E+00  2.98482032E-01  0.00000000E+00
  0.00000000E+00  0.00000000E+00  4.32754843E-01  0.00000000E+00  0.00000000E+00
  0.00000000E+00  3.94903298E-01  0.00000000E+00  0.00000000E+00  0.00000000E+00
  1.15760107E-01  0.00000000E+00  3.06974317E-09 -1.68856520E-02  0.00000000E+00
  0.00000000E+00  0.00000000E+00  0.00000000E+00  0.00000000E+00  0.00000000E+00
  0.00000000E+00  0.00000000E+00  3.43689476E-02  0.00000000E+00  0.00000000E+00
  0.00000000E+00  0.00000000E+00  0.00000000E+00  0.00000000E+00  3.43689411E-02
 -2.96246132E-02 -4.92059135E-02 -1.98482542E-08 -7.20827082E-02  0.00000000E+00
  1.67458755E-01 -2.79699303E-08 -1.05149075E-01  0.00000000E+00  2.75956442E-01
 -2.97473710E-08 -1.57009021E-01  0.00000000E+00  8.35805089E-01 -6.86804958E-08
 -1.03839411E-01  0.00000000E+00 -1.10181497E-03  0.00000000E+00  0.00000000E+00
 -4.51292751E-03 -2.69905736E-09 -1.80917047E-02 -9.64150345E-02 -3.77959814E-01
 -5.81304253E-01 -1.89539420E-02  1.06906844E-02  0.00000000E+00 -1.80917278E-02
 -9.64150749E-02 -3.77959989E-01 -5.81304460E-01  1.89539438E-02  1.06906974E-02
  0.00000000E+00  1.67166919E-09  2.88607934E-09 -8.55735378E-02 -1.24755501E-08
  0.00000000E+00 -1.10600648E-08 -1.29669126E-01 -1.95746886E-08  0.00000000E+00
 -2.55617502E-09 -1.13527907E-01 -1.67916942E-08  0.00000000E+00 -1.07900192E-07
 -4.68273038E-01 -7.34860743E-08  0.00000000E+00  1.10042677E-09  0.00000000E+00
  0.00000000E+00 -1.15537509E-09 -6.34171836E-04  2.20810812E-03  3.81653780E-02
  3.94662878E-01  2.05950881E+00  1.52317362E-02 -1.55295640E-02  0.00000000E+00
 -2.20812466E-03 -3.81653974E-02 -3.94662910E-01 -2.05950859E+00  1.52317360E-02
  1.55295629E-02  0.00000000E+00  2.57897026E-02  4.15053309E-02  1.39351834E-07
  1.32849266E-01  0.00000000E+00 -1.06630931E-01  1.82396694E-07  1.77946799E-01
  0.00000000E+00 -6.25973686E-01  3.60020364E-07  3.83161729E-01  0.00000000E+00
 -1.58382130E+00  1.59101089E-06  2.97154542E-01  0.00000000E+00 -3.15076166E-03
  0.00000000E+00  0.00000000E+00  1.04821618E-02  2.65070795E-08  6.73578517E-02
  5.46544657E-02  2.03721128E+00 -8.22506575E-01  1.78513151E-02 -5.09311827E-03
  0.00000000E+00  6.73580748E-02  5.46546983E-02  2.03721724E+00 -8.22509725E-01
 -1.78513319E-02 -5.09319239E-03  0.00000000E+00  0.00000000E+00  0.00000000E+00
  0.00000000E+00  0.00000000E+00 -1.39993560E-01  0.00000000E+00  0.00000000E+00
  0.00000000E+00 -1.47905856E-01  0.00000000E+00  0.00000000E+00  0.00000000E+00
 -5.19654006E-01  0.00000000E+00  0.00000000E+00  0.00000000E+00  1.23936732E+00
  0.00000000E+00 -2.42898731E-09  7.75821552E-03  0.00000000E+00  0.00000000E+00
  0.00000000E+00  0.00000000E+00  0.00000000E+00  0.00000000E+00  0.00000000E+00
  0.00000000E+00  1.32922840E-02  0.00000000E+00  0.00000000E+00  0.00000000E+00
  0.00000000E+00  0.00000000E+00  0.00000000E+00  1.32922868E-02 -2.76921574E-02
 -4.52368503E-02 -3.31875930E-05  6.66906587E-02  0.00000000E+00  1.41482655E-01
 -4.34667766E-05  5.40012336E-02  0.00000000E+00  3.69024410E-01 -8.88839481E-05
  3.71819239E-01  0.00000000E+00  2.62164456E+00 -4.45857587E-04 -2.16778785E+00
  0.00000000E+00  1.35335409E-02  0.00000000E+00  0.00000000E+00 -7.98187553E-04
 -5.36334477E-06 -4.82038756E-02  3.21258021E-02 -2.16675216E+00  2.73463211E-01
 -2.66865183E-02 -8.95422454E-03  0.00000000E+00 -4.82511892E-02  3.20852620E-02
 -2.16834802E+00  2.74140278E-01  2.66916824E-02 -8.93767167E-03  0.00000000E+00
  7.42146231E-06  1.21225534E-05 -1.24277238E-01 -1.76649879E-05  0.00000000E+00
 -3.78812257E-05 -1.62778363E-01 -1.42347393E-05  0.00000000E+00 -9.92847272E-05
 -3.32729934E-01 -9.88375127E-05  0.00000000E+00 -7.02299236E-04 -1.67264610E+00
  5.78946942E-04  0.00000000E+00 -3.61471505E-06  0.00000000E+00  0.00000000E+00
  2.27456156E-07 -2.01051020E-02  8.86450883E-02  7.57978724E-02  2.99171523E+00
 -1.26775815E+00  9.67731781E-03 -3.10032894E-02  0.00000000E+00 -8.86192175E-02
 -7.58149936E-02 -2.99055265E+00  1.26761023E+00  9.66301955E-03  3.10080483E-02
  0.00000000E+00  1.01099811E-08  1.62405660E-08 -1.23582012E-01 -2.40296395E-08
  0.00000000E+00 -3.69691669E-08 -1.43143833E-01 -1.22237474E-08  0.00000000E+00
 -3.69765551E-07 -5.72394431E-01 -1.13842370E-07  0.00000000E+00  2.45555390E-06
  2.64081313E+00 -2.16496937E-07  0.00000000E+00  6.11017138E-09  0.00000000E+00
  0.00000000E+00 -8.97566154E-09  2.07198172E-02 -7.96059754E-03  1.08391388E-01
 -1.10113242E+00 -2.05385257E+00  1.06707510E-02  1.08396294E-02  0.00000000E+00
  7.96057934E-03 -1.08391331E-01  1.10113055E+00  2.05385210E+00  1.06707663E-02
 -1.08396245E-02  0.00000000E+00  2.65878366E-02  4.18141609E-02  4.26229891E-08
 -1.42383197E-02  0.00000000E+00 -7.43142960E-02  3.33795461E-08  2.55742240E-02
  0.00000000E+00 -1.09483167E+00  1.96108687E-07 -7.38235952E-02  0.00000000E+00
  8.67049683E+00 -2.71024502E-07 -2.35366718E+00  0.00000000E+00  2.08569762E-02
  0.00000000E+00  0.00000000E+00 -1.07797160E-02 -4.27712474E-09 -2.14619273E-02
  1.00496436E-01 -3.93950230E+00 -5.04185822E-01 -2.78379698E-02  4.23099198E-03
  0.00000000E+00 -2.14619274E-02  1.00496442E-01 -3.93950193E+00 -5.04186603E-01
  2.78379538E-02  4.23099370E-03  0.00000000E+00 -2.62810865E-08 -4.47052635E-08
 -1.42084145E-01 -1.13242097E-07  0.00000000E+00  1.46100160E-07 -2.45186417E-01
 -1.99088505E-07  0.00000000E+00  4.91299964E-07 -8.90234673E-01 -5.86816742E-07
  0.00000000E+00 -2.95155025E-06  1.63489346E+00  1.32144139E-06  0.00000000E+00
  1.23404796E-08  0.00000000E+00  0.00000000E+00 -1.18804441E-08 -2.56697471E-02
  1.24434391E-01  1.57010007E+00 -3.44819008E+00  8.57950135E-01 -2.05830434E-02
 -1.34001840E-02  0.00000000E+00 -1.24434605E-01 -1.57010285E+00  3.44819606E+00
 -8.57951084E-01 -2.05830403E-02  1.34001429E-02  0.00000000E+00  3.41751647E-02
  5.85706024E-02 -1.36574422E-07  1.19180400E-01  0.00000000E+00 -1.87252696E-01
 -2.55793431E-07  2.26257572E-01  0.00000000E+00 -1.02359099E+00 -1.10093390E-06
  8.04742539E-01  0.00000000E+00  4.33462666E+00  1.80969187E-06 -1.57294039E+00
  0.00000000E+00 -1.32157993E-02  0.00000000E+00  0.00000000E+00  1.91896964E-02
 -1.76980153E-08  1.19616449E-01  1.85746962E+00 -3.81327582E+00  4.51550370E-01
 -4.55790396E-03  3.15365814E-02  0.00000000E+00  1.19616241E-01  1.85746650E+00
 -3.81326936E+00  4.51549291E-01  4.55784503E-03  3.15365955E-02  0.00000000E+00
  4.70013987E-04 -2.60482601E-03  8.74036614E-08 -2.46974191E-01  0.00000000E+00
  1.84234186E-01  1.92177871E-07 -6.84342841E-01  0.00000000E+00 -1.57645714E+00
 -8.22945522E-07  2.10137697E+00  0.00000000E+00  2.09993228E+00  5.39938313E-07
 -1.36709858E+00  0.00000000E+00  7.47836494E-03  0.00000000E+00  0.00000000E+00
  9.42752667E-03  1.18657355E-08  2.49435529E-02  9.91204860E-01 -1.14093876E+00
 -9.70859132E-02 -1.05018555E-01  2.21122552E-01  0.00000000E+00  2.49435268E-02
  9.91204387E-01 -1.14093852E+00 -9.70853442E-02  1.05018395E-01  2.21122538E-01
  0.00000000E+00  0.00000000E+00  0.00000000E+00  0.00000000E+00  0.00000000E+00
 -2.69930455E-01  0.00000000E+00  0.00000000E+00  0.00000000E+00 -8.43151773E-01
  0.00000000E+00  0.00000000E+00  0.00000000E+00  1.59501145E+00  0.00000000E+00
  0.00000000E+00  0.00000000E+00 -7.87695022E-01  0.00000000E+00 -7.19556091E-09
  1.84422616E-03  0.00000000E+00  0.00000000E+00  0.00000000E+00  0.00000000E+00
  0.00000000E+00  0.00000000E+00  0.00000000E+00  0.00000000E+00  4.06118862E-02
  0.00000000E+00  0.00000000E+00  0.00000000E+00  0.00000000E+00  0.00000000E+00
  0.00000000E+00  4.06119768E-02  4.82339425E-09  7.34500469E-09 -2.38563341E-01
 -8.35769975E-08  0.00000000E+00  1.41731849E-08 -6.80547988E-01 -2.70002093E-07
  0.00000000E+00 -1.86989383E-07  2.39366841E+00  7.89615186E-07  0.00000000E+00
  4.38828875E-07 -1.64898614E+00 -5.54672364E-07  0.00000000E+00 -3.82596027E-09
  0.00000000E+00  0.00000000E+00  3.07989991E-09 -3.51004279E-03 -2.21209340E-02
 -7.59831012E-01  5.15673954E-01  9.51494772E-01  1.83831495E-01 -9.87844711E-02
  0.00000000E+00  2.21209179E-02  7.59831547E-01 -5.15674733E-01 -9.51494711E-01
  1.83831554E-01  9.87845842E-02  0.00000000E+00  3.68593389E-02  7.16761695E-02
  1.17643610E-08 -3.19900141E-02  0.00000000E+00 -4.88291187E-01  6.77066914E-08
 -1.99502846E-01  0.00000000E+00  3.90527076E-01 -2.24006367E-07  1.17837624E+00
  0.00000000E+00 -8.55790043E-01  4.33726580E-08 -1.39056310E-01  0.00000000E+00
 -2.98582137E-02  0.00000000E+00  0.00000000E+00 -1.31984485E-01 -2.40993144E-08
 -3.49764392E-02  5.77011876E-01 -6.75036947E-02  1.55244429E-01 -3.96507367E-01
 -5.24191595E-01  0.00000000E+00 -3.49764430E-02  5.77011736E-01 -6.75037037E-02
  1.55244429E-01  3.96507453E-01 -5.24191537E-01  0.00000000E+00  0.00000000E+00
  0.00000000E+00  0.00000000E+00  0.00000000E+00 -2.19450837E-08  0.00000000E+00
  0.00000000E+00  0.00000000E+00 -1.05682107E-07  0.00000000E+00  0.00000000E+00
  0.00000000E+00  1.12803954E-07  0.00000000E+00  0.00000000E+00  0.00000000E+00
 -3.57794748E-08  0.00000000E+00  1.33803750E-01  2.72986948E-08  0.00000000E+00
  0.00000000E+00  0.00000000E+00  0.00000000E+00  0.00000000E+00  0.00000000E+00
  0.00000000E+00  0.00000000E+00  6.85349519E-01  0.00000000E+00  0.00000000E+00
  0.00000000E+00  0.00000000E+00  0.00000000E+00  0.00000000E+00 -6.85349592E-01
  1.05566132E-01  2.11095158E-01  6.52282022E-09 -2.69691274E-02  0.00000000E+00
 -1.77311392E+00  1.48646659E-07 -2.38360762E-01  0.00000000E+00  4.54344766E+00
  1.91183929E-07 -1.07643739E+00  0.00000000E+00 -4.28581470E+00 -1.36457151E-07
  9.51867209E-01  0.00000000E+00  1.92526639E-02  0.00000000E+00  0.00000000E+00
  5.86864670E-02 -1.95458538E-08  2.42244544E-02 -1.57461036E+00  1.71926027E+00
  2.66998186E-01  4.45563326E-01  1.72087026E-03  0.00000000E+00  2.42244902E-02
 -1.57460995E+00  1.71926006E+00  2.66998008E-01 -4.45563239E-01  1.72091978E-03
  0.00000000E+00  0.00000000E+00  0.00000000E+00  0.00000000E+00  0.00000000E+00
  1.98833510E-02  0.00000000E+00  0.00000000E+00  0.00000000E+00 -4.59547370E-02
  0.00000000E+00  0.00000000E+00  0.00000000E+00  7.66744406E-01  0.00000000E+00
  0.00000000E+00  0.00000000E+00 -1.43691927E-01  0.00000000E+00 -1.91260473E-08
  1.60358827E-01  0.00000000E+00  0.00000000E+00  0.00000000E+00  0.00000000E+00
  0.00000000E+00  0.00000000E+00  0.00000000E+00  0.00000000E+00 -7.65207511E-01
  0.00000000E+00  0.00000000E+00  0.00000000E+00  0.00000000E+00  0.00000000E+00
  0.00000000E+00 -7.65207413E-01 -6.02966055E-09 -1.24237211E-08 -1.43819348E-02
  3.90918003E-09  0.00000000E+00  9.20682697E-08 -7.14100957E-02  1.40471261E-08
  0.00000000E+00  7.26181687E-08  1.14498302E+00  9.03297205E-08  0.00000000E+00
  5.60004680E-08 -4.34729368E-01 -7.38370367E-08  0.00000000E+00  6.80875012E-10
  0.00000000E+00  0.00000000E+00 -3.20866403E-09 -3.30964878E-02  8.27455201E-02
 -7.73085091E-01  5.91062740E-01 -8.87733123E-03 -4.82985380E-01 -6.66772771E-01
  0.00000000E+00 -8.27455591E-02  7.73085027E-01 -5.91062869E-01  8.87735434E-03
 -4.82985547E-01  6.66772594E-01  0.00000000E+00 -3.16195280E-08 -6.00545726E-08
 -1.82059279E-01 -1.20515359E-07  0.00000000E+00  2.37592268E-07 -5.30320776E-01
 -3.56494420E-07  0.00000000E+00  9.80343162E-07  9.11091111E-02 -3.51195660E-07
  0.00000000E+00 -3.01177809E-08 -4.25798795E-01 -3.74574428E-08  0.00000000E+00
  1.65685109E-07  0.00000000E+00  0.00000000E+00  2.20127183E-08 -2.12157435E-01
  5.78906526E-01 -7.20343367E-01  1.34964993E+00 -4.10292414E-01 -4.61460655E-01
  5.06030641E-01  0.00000000E+00 -5.78907102E-01  7.20343124E-01 -1.34965066E+00
  4.10292666E-01 -4.61461726E-01 -5.06031394E-01  0.00000000E+00  4.83130629E-02
  9.46775700E-02 -1.60701972E-07  1.54683014E-01  0.00000000E+00 -5.40476924E-01
 -4.55053030E-07  4.02574265E-01  0.00000000E+00 -4.72860907E-01  3.47081643E-07
  6.23660999E-02  0.00000000E+00 -9.34672079E-01 -5.12976886E-07  3.02531360E-01
  0.00000000E+00 -2.66193179E-01  0.00000000E+00  0.00000000E+00  5.83209217E-02
 -1.97258053E-07  6.07016481E-01 -5.13883726E-01  1.12276377E+00 -1.75170019E-01
 -6.20807866E-01  3.78048691E-01  0.00000000E+00  6.07015365E-01 -5.13882092E-01
  1.12276130E+00 -1.75169459E-01  6.20807200E-01  3.78048266E-01  0.00000000E+00
  3.33557177E-02  7.82795976E-02  3.78657257E-09 -3.36910056E-02  0.00000000E+00
 -5.58657504E-01 -3.88423207E-07  5.31549576E-01  0.00000000E+00 -2.28620721E+00
 -4.42663800E-07  1.02450239E+00  0.00000000E+00  2.29258046E+00  2.59898383E-07
 -7.71107256E-01  0.00000000E+00  2.69487889E-02  0.00000000E+00  0.00000000E+00
 -5.79141094E-02  7.02165091E-08 -9.37121884E-01  2.84162823E+00 -2.08828733E+00
  2.07826015E-01 -7.34540485E-01  5.34567418E-01  0.00000000E+00 -9.37121925E-01
  2.84162702E+00 -2.08828675E+00  2.07826123E-01  7.34539748E-01  5.34567061E-01
  0.00000000E+00  5.26065084E-09  1.62074028E-08  2.16662819E-02  6.62996214E-09
  0.00000000E+00 -2.52300852E-07 -7.71019579E-01  3.93886958E-08  0.00000000E+00
 -2.85745580E-07 -9.95206706E-01 -4.69309893E-08  0.00000000E+00  7.12976679E-08
  6.42636822E-01  7.38286434E-08  0.00000000E+00  3.13132279E-08  0.00000000E+00
  0.00000000E+00 -5.35244149E-08  2.20717856E-01 -9.44280334E-01  2.55436932E+00
 -1.68245651E+00  3.79196586E-01 -7.82593481E-01  5.98234546E-01  0.00000000E+00
  9.44280876E-01 -2.55436947E+00  1.68245682E+00 -3.79196717E-01 -7.82593151E-01
 -5.98234508E-01  0.00000000E+00  0.00000000E+00  0.00000000E+00  0.00000000E+00
  0.00000000E+00  2.71520888E-03  0.00000000E+00  0.00000000E+00  0.00000000E+00
  1.77005065E-02  0.00000000E+00  0.00000000E+00  0.00000000E+00 -3.24380948E-01
  0.00000000E+00  0.00000000E+00  0.00000000E+00  5.55498254E-02  0.00000000E+00
  1.33357999E-06  1.03107629E+00  0.00000000E+00  0.00000000E+00  0.00000000E+00
  0.00000000E+00  0.00000000E+00  0.00000000E+00  0.00000000E+00  0.00000000E+00
  3.65556373E-01  0.00000000E+00  0.00000000E+00  0.00000000E+00  0.00000000E+00
  0.00000000E+00  0.00000000E+00  3.65557246E-01  0.00000000E+00  0.00000000E+00
  0.00000000E+00  0.00000000E+00  8.12271128E-09  0.00000000E+00  0.00000000E+00
  0.00000000E+00 -1.27612187E-08  0.00000000E+00  0.00000000E+00  0.00000000E+00
  5.11092373E-07  0.00000000E+00  0.00000000E+00  0.00000000E+00 -9.51061686E-08
  0.00000000E+00  1.05141484E+00 -1.34110347E-06  0.00000000E+00  0.00000000E+00
  0.00000000E+00  0.00000000E+00  0.00000000E+00  0.00000000E+00  0.00000000E+00