 Entering Gaussian System, Link 0=g09
 Input=HOH_freq2.gjf
 Output=HOH_freq2.log
 Initial command:
 /usr/local/gaussian/g09/l1.exe "/scratch/Gau-19661.inp" -scrdir="/scratch/"
 Entering Link 1 = /usr/local/gaussian/g09/l1.exe PID=     19662.
  
 Copyright (c) 1988,1990,1992,1993,1995,1998,2003,2009,2015,
            Gaussian, Inc.  All Rights Reserved.
  
 This is part of the Gaussian(R) 09 program.  It is based on
 the Gaussian(R) 03 system (copyright 2003, Gaussian, Inc.),
 the Gaussian(R) 98 system (copyright 1998, Gaussian, Inc.),
 the Gaussian(R) 94 system (copyright 1995, Gaussian, Inc.),
 the Gaussian 92(TM) system (copyright 1992, Gaussian, Inc.),
 the Gaussian 90(TM) system (copyright 1990, Gaussian, Inc.),
 the Gaussian 88(TM) system (copyright 1988, Gaussian, Inc.),
 the Gaussian 86(TM) system (copyright 1986, Carnegie Mellon
 University), and the Gaussian 82(TM) system (copyright 1983,
 Carnegie Mellon University). Gaussian is a federally registered
 trademark of Gaussian, Inc.
  
 This software contains proprietary and confidential information,
 including trade secrets, belonging to Gaussian, Inc.
  
 This software is provided under written license and may be
 used, copied, transmitted, or stored only in accord with that
 written license.
  
 The following legend is applicable only to US Government
 contracts under FAR:
  
                    RESTRICTED RIGHTS LEGEND
  
 Use, reproduction and disclosure by the US Government is
 subject to restrictions as set forth in subparagraphs (a)
 and (c) of the Commercial Computer Software - Restricted
 Rights clause in FAR 52.227-19.
  
 Gaussian, Inc.
 340 Quinnipiac St., Bldg. 40, Wallingford CT 06492
  
  
 ---------------------------------------------------------------
 Warning -- This program may not be used in any manner that
 competes with the business of Gaussian, Inc. or will provide
 assistance to any competitor of Gaussian, Inc.  The licensee
 of this program is prohibited from giving any competitor of
 Gaussian, Inc. access to this program.  By using this program,
 the user acknowledges that Gaussian, Inc. is engaged in the
 business of creating and licensing software in the field of
 computational chemistry and represents and warrants to the
 licensee that it is not a competitor of Gaussian, Inc. and that
 it will not use this program in any manner prohibited above.
 ---------------------------------------------------------------
  

 Cite this work as:
 Gaussian 09, Revision E.01,
 M. J. Frisch, G. W. Trucks, H. B. Schlegel, G. E. Scuseria, 
 M. A. Robb, J. R. Cheeseman, G. Scalmani, V. Barone, B. Mennucci, 
 G. A. Petersson, H. Nakatsuji, M. Caricato, X. Li, H. P. Hratchian, 
 A. F. Izmaylov, J. Bloino, G. Zheng, J. L. Sonnenberg, M. Hada, 
 M. Ehara, K. Toyota, R. Fukuda, J. Hasegawa, M. Ishida, T. Nakajima, 
 Y. Honda, O. Kitao, H. Nakai, T. Vreven, J. A. Montgomery, Jr., 
 J. E. Peralta, F. Ogliaro, M. Bearpark, J. J. Heyd, E. Brothers, 
 K. N. Kudin, V. N. Staroverov, T. Keith, R. Kobayashi, J. Normand, 
 K. Raghavachari, A. Rendell, J. C. Burant, S. S. Iyengar, J. Tomasi, 
 M. Cossi, N. Rega, J. M. Millam, M. Klene, J. E. Knox, J. B. Cross, 
 V. Bakken, C. Adamo, J. Jaramillo, R. Gomperts, R. E. Stratmann, 
 O. Yazyev, A. J. Austin, R. Cammi, C. Pomelli, J. W. Ochterski, 
 R. L. Martin, K. Morokuma, V. G. Zakrzewski, G. A. Voth, 
 P. Salvador, J. J. Dannenberg, S. Dapprich, A. D. Daniels, 
 O. Farkas, J. B. Foresman, J. V. Ortiz, J. Cioslowski, 
 and D. J. Fox, Gaussian, Inc., Wallingford CT, 2013.
 
 ******************************************
 Gaussian 09:  ES64L-G09RevE.01 30-Nov-2015
                20-Oct-2020 
 ******************************************
 %Chk=HOH_freq2.chk
 %NProc=8
 Will use up to    8 processors via shared memory.
 %Mem=1000MB
 ----------------------------------------------------------------------
 #MP2/aug-cc-pvdz #Density=current #Opt=VeryTight #Frequency=Anharmonic
 ----------------------------------------------------------------------
 1/7=1,18=20,19=15,38=1,80=1/1,3;
 2/9=110,12=2,17=6,18=5,40=1/2;
 3/5=16,7=10,11=9,16=1,25=1,30=1,71=1/1,2,3;
 4//1;
 5/5=2,38=5/2;
 8/6=4,10=1/1;
 9/15=2,16=-3/6;
 10/5=1/2;
 6/7=2,8=2,9=2,10=2,22=-1/1;
 7/12=2/1,2,3,16;
 1/7=1,18=20,19=15,80=1/3(2);
 2/9=110/2;
 99/8=1000/99;
 2/9=110/2;
 3/5=16,7=10,11=9,16=1,25=1,30=1,71=1/1,2,3;
 4/5=5,16=3,69=1/1;
 5/5=2,38=5/2;
 8/6=4,10=1/1;
 9/15=2,16=-3/6;
 10/5=1/2;
 7/12=2/1,2,3,16;
 1/7=1,18=20,19=15,80=1/3(-8);
 2/9=110/2;
 6/7=2,8=2,9=2,10=2,22=-1/1;
 99/8=1000/99;
 ----------
 Water freq
 ----------
 Symbolic Z-matrix:
 Charge =  0 Multiplicity = 1
 O
 H                    1    R
 H                    1    R        2    A
       Variables:
  R                     0.96593                  
  A                   103.87321                  
 

 GradGradGradGradGradGradGradGradGradGradGradGradGradGradGradGradGradGrad
 Berny optimization.
 Initialization pass.
                           ----------------------------
                           !    Initial Parameters    !
                           ! (Angstroms and Degrees)  !
 --------------------------                            --------------------------
 ! Name  Definition              Value          Derivative Info.                !
 --------------------------------------------------------------------------------
 ! R1    R(1,2)                  0.9659         estimate D2E/DX2                !
 ! R2    R(1,3)                  0.9659         estimate D2E/DX2                !
 ! A1    A(2,1,3)              103.8732         estimate D2E/DX2                !
 --------------------------------------------------------------------------------
 Trust Radius=3.00D-01 FncErr=1.00D-07 GrdErr=1.00D-07
 Number of steps in this run=     20 maximum allowed number of steps=    100.
 GradGradGradGradGradGradGradGradGradGradGradGradGradGradGradGradGradGrad

                          Input orientation:                          
 ---------------------------------------------------------------------
 Center     Atomic      Atomic             Coordinates (Angstroms)
 Number     Number       Type             X           Y           Z
 ---------------------------------------------------------------------
      1          8           0        0.000000    0.000000    0.000000
      2          1           0        0.000000    0.000000    0.965929
      3          1           0        0.937752    0.000000   -0.231605
 ---------------------------------------------------------------------
                    Distance matrix (angstroms):
                    1          2          3
     1  O    0.000000
     2  H    0.965929   0.000000
     3  H    0.965929   1.521008   0.000000
 Stoichiometry    H2O
 Framework group  C2V[C2(O),SGV(H2)]
 Deg. of freedom     2
 Full point group                 C2V     NOp   4
 Largest Abelian subgroup         C2V     NOp   4
 Largest concise Abelian subgroup C2      NOp   2
                         Standard orientation:                         
 ---------------------------------------------------------------------
 Center     Atomic      Atomic             Coordinates (Angstroms)
 Number     Number       Type             X           Y           Z
 ---------------------------------------------------------------------
      1          8           0        0.000000    0.000000    0.119105
      2          1           0       -0.000000    0.760504   -0.476422
      3          1           0       -0.000000   -0.760504   -0.476422
 ---------------------------------------------------------------------
 Rotational constants (GHZ):    796.0575911    433.5100450    280.6669206
 Standard basis: Aug-CC-pVDZ (5D, 7F)
 There are    20 symmetry adapted cartesian basis functions of A1  symmetry.
 There are     4 symmetry adapted cartesian basis functions of A2  symmetry.
 There are     7 symmetry adapted cartesian basis functions of B1  symmetry.
 There are    12 symmetry adapted cartesian basis functions of B2  symmetry.
 There are    18 symmetry adapted basis functions of A1  symmetry.
 There are     4 symmetry adapted basis functions of A2  symmetry.
 There are     7 symmetry adapted basis functions of B1  symmetry.
 There are    12 symmetry adapted basis functions of B2  symmetry.
    41 basis functions,    65 primitive gaussians,    43 cartesian basis functions
     5 alpha electrons        5 beta electrons
       nuclear repulsion energy         9.1133972799 Hartrees.
 NAtoms=    3 NActive=    3 NUniq=    2 SFac= 2.25D+00 NAtFMM=   60 NAOKFM=F Big=F
 Integral buffers will be    131072 words long.
 Raffenetti 1 integral format.
 Two-electron integral symmetry is turned on.
 One-electron integrals computed using PRISM.
 NBasis=    41 RedAO= T EigKep=  2.88D-03  NBF=    18     4     7    12
 NBsUse=    41 1.00D-06 EigRej= -1.00D+00 NBFU=    18     4     7    12
 ExpMin= 2.97D-02 ExpMax= 1.17D+04 ExpMxC= 4.01D+02 IAcc=3 IRadAn=         5 AccDes= 0.00D+00
 Harris functional with IExCor=  205 and IRadAn=       5 diagonalized for initial guess.
 HarFok:  IExCor=  205 AccDes= 0.00D+00 IRadAn=         5 IDoV= 1 UseB2=F ITyADJ=14
 ICtDFT=  3500011 ScaDFX=  1.000000  1.000000  1.000000  1.000000
 FoFCou: FMM=F IPFlag=           0 FMFlag=      100000 FMFlg1=           0
         NFxFlg=           0 DoJE=T BraDBF=F KetDBF=T FulRan=T
         wScrn=  0.000000 ICntrl=     500 IOpCl=  0 I1Cent=   200000004 NGrid=           0
         NMat0=    1 NMatS0=      1 NMatT0=    0 NMatD0=    1 NMtDS0=    0 NMtDT0=    0
 Petite list used in FoFCou.
 Initial guess orbital symmetries:
       Occupied  (A1) (A1) (B2) (A1) (B1)
       Virtual   (A1) (B2) (A1) (B1) (A1) (B2) (B2) (A1) (A2) (A1)
                 (B1) (B2) (A1) (B2) (B2) (A1) (B1) (A1) (A2) (A1)
                 (B1) (B2) (A1) (B2) (A2) (B1) (B2) (A1) (A1) (B2)
                 (A1) (B1) (A1) (A2) (A1) (B2)
 The electronic state of the initial guess is 1-A1.
 Keep R1 ints in memory in symmetry-blocked form, NReq=1235623.
 Requested convergence on RMS density matrix=1.00D-08 within 128 cycles.
 Requested convergence on MAX density matrix=1.00D-06.
 Requested convergence on             energy=1.00D-06.
 No special actions if energy rises.
 SCF Done:  E(RHF) =  -76.0407613895     A.U. after   10 cycles
            NFock= 10  Conv=0.63D-08     -V/T= 2.0019
 ExpMin= 2.97D-02 ExpMax= 1.17D+04 ExpMxC= 4.01D+02 IAcc=3 IRadAn=         5 AccDes= 0.00D+00
 HarFok:  IExCor=  205 AccDes= 0.00D+00 IRadAn=         5 IDoV=-2 UseB2=F ITyADJ=14
 ICtDFT= 12500011 ScaDFX=  1.000000  1.000000  1.000000  1.000000
 Range of M.O.s used for correlation:     2    41
 NBasis=    41 NAE=     5 NBE=     5 NFC=     1 NFV=     0
 NROrb=     40 NOA=     4 NOB=     4 NVA=    36 NVB=    36
 Fully direct method using O(ONN) memory.
 JobTyp=1 Pass  1:  I=   2 to   5 NPSUse=  8 ParTrn=T ParDer=T DoDerP=T.
 Spin components of T(2) and E(2):
     alpha-alpha T2 =       0.7789720805D-02 E2=     -0.2800145357D-01
     alpha-beta  T2 =       0.4409744256D-01 E2=     -0.1641454688D+00
     beta-beta   T2 =       0.7789720805D-02 E2=     -0.2800145357D-01
 ANorm=    0.1029406083D+01
 E2 =    -0.2201483759D+00 EUMP2 =    -0.76260909765378D+02
          IDoAtm=111
          Differentiating once with respect to electric field.
                with respect to dipole field.
          Differentiating once with respect to nuclear coordinates.
 Keep R1 ints in memory in symmetry-blocked form, NReq=1218581.
          There are     1 degrees of freedom in the 1st order CPHF.  IDoFFX=0 NUNeed=     1.
 LinEq1:  Iter=  0 NonCon=     1 RMS=8.33D-03 Max=6.68D-02 NDo=     1
 AX will form     1 AO Fock derivatives at one time.
 LinEq1:  Iter=  1 NonCon=     1 RMS=1.78D-03 Max=1.05D-02 NDo=     1
 LinEq1:  Iter=  2 NonCon=     1 RMS=6.71D-04 Max=5.04D-03 NDo=     1
 LinEq1:  Iter=  3 NonCon=     1 RMS=6.81D-05 Max=4.01D-04 NDo=     1
 LinEq1:  Iter=  4 NonCon=     1 RMS=7.26D-06 Max=3.01D-05 NDo=     1
 LinEq1:  Iter=  5 NonCon=     1 RMS=1.48D-06 Max=6.75D-06 NDo=     1
 LinEq1:  Iter=  6 NonCon=     1 RMS=2.31D-07 Max=1.19D-06 NDo=     1
 LinEq1:  Iter=  7 NonCon=     1 RMS=2.27D-08 Max=1.69D-07 NDo=     1
 LinEq1:  Iter=  8 NonCon=     1 RMS=2.52D-09 Max=1.71D-08 NDo=     1
 LinEq1:  Iter=  9 NonCon=     1 RMS=2.02D-10 Max=1.23D-09 NDo=     1
 LinEq1:  Iter= 10 NonCon=     0 RMS=1.63D-11 Max=9.57D-11 NDo=     1
 Linear equations converged to 1.000D-10 1.000D-09 after    10 iterations.
 End of Minotr F.D. properties file   721 does not exist.
 End of Minotr F.D. properties file   722 does not exist.
 End of Minotr F.D. properties file   788 does not exist.

 **********************************************************************

            Population analysis using the MP2 density.

 **********************************************************************

 Orbital symmetries:
       Occupied  (A1) (A1) (B2) (A1) (B1)
       Virtual   (A1) (B2) (A1) (B1) (A1) (B2) (B2) (A1) (A2) (A1)
                 (B1) (B2) (A1) (B2) (B2) (A1) (B1) (A1) (A2) (A1)
                 (B2) (B1) (A1) (B2) (A2) (B1) (A1) (B2) (A1) (B2)
                 (A1) (B1) (A1) (A2) (A1) (B2)
 The electronic state is 1-A1.
 Alpha  occ. eigenvalues --  -20.57901  -1.35264  -0.71331  -0.58523  -0.50891
 Alpha virt. eigenvalues --    0.03523   0.05794   0.17410   0.19718   0.22209
 Alpha virt. eigenvalues --    0.23191   0.28795   0.33127   0.38552   0.40158
 Alpha virt. eigenvalues --    0.43156   0.53856   0.64620   0.65791   0.80618
 Alpha virt. eigenvalues --    0.92914   1.10253   1.11663   1.14807   1.30153
 Alpha virt. eigenvalues --    1.46351   1.47976   1.58168   1.99853   2.00484
 Alpha virt. eigenvalues --    2.10547   2.35722   2.46684   2.61030   2.71037
 Alpha virt. eigenvalues --    2.96998   3.67298   3.68914   3.70083   4.01231
 Alpha virt. eigenvalues --    4.29190
          Condensed to atoms (all electrons):
               1          2          3
     1  O    7.602994   0.317728   0.317728
     2  H    0.317728   0.612029  -0.048982
     3  H    0.317728  -0.048982   0.612029
 Mulliken charges:
               1
     1  O   -0.238450
     2  H    0.119225
     3  H    0.119225
 Sum of Mulliken charges =   0.00000
 Mulliken charges with hydrogens summed into heavy atoms:
               1
     1  O    0.000000
 Electronic spatial extent (au):  <R**2>=             20.2956
 Charge=              0.0000 electrons
 Dipole moment (field-independent basis, Debye):
    X=             -0.0000    Y=             -0.0000    Z=             -1.8795  Tot=              1.8795
 Quadrupole moment (field-independent basis, Debye-Ang):
   XX=             -7.9361   YY=             -4.5483   ZZ=             -6.5324
   XY=              0.0000   XZ=              0.0000   YZ=             -0.0000
 Traceless Quadrupole moment (field-independent basis, Debye-Ang):
   XX=             -1.5972   YY=              1.7906   ZZ=             -0.1935
   XY=              0.0000   XZ=              0.0000   YZ=             -0.0000
 Octapole moment (field-independent basis, Debye-Ang**2):
  XXX=              0.0000  YYY=              0.0000  ZZZ=             -1.0069  XYY=             -0.0000
  XXY=              0.0000  XXZ=             -0.2315  XZZ=              0.0000  YZZ=             -0.0000
  YYZ=             -1.3075  XYZ=             -0.0000
 Hexadecapole moment (field-independent basis, Debye-Ang**3):
 XXXX=             -7.9500 YYYY=             -6.8010 ZZZZ=             -8.2553 XXXY=             -0.0000
 XXXZ=             -0.0000 YYYX=             -0.0000 YYYZ=             -0.0000 ZZZX=             -0.0000
 ZZZY=              0.0000 XXYY=             -2.7899 XXZZ=             -2.7532 YYZZ=             -2.2112
 XXYZ=              0.0000 YYXZ=              0.0000 ZZXY=             -0.0000
 N-N= 9.113397279930D+00 E-N=-1.985159003119D+02  KE= 7.601378983817D+01
 Symmetry A1   KE= 6.797285711022D+01
 Symmetry A2   KE= 1.784998666003D-02
 Symmetry B1   KE= 4.364767284772D+00
 Symmetry B2   KE= 3.658315456519D+00
 Calling FoFJK, ICntrl=  10002127 FMM=F ISym2X=1 I1Cent= 0 IOpClX= 0 NMat=1 NMatS=1 NMatT=0.
 ***** Axes restored to original set *****
 -------------------------------------------------------------------
 Center     Atomic                   Forces (Hartrees/Bohr)
 Number     Number              X              Y              Z
 -------------------------------------------------------------------
      1        8           0.000000056    0.000000000    0.000000044
      2        1           0.000000018   -0.000000000   -0.000000080
      3        1          -0.000000074   -0.000000000    0.000000036
 -------------------------------------------------------------------
 Cartesian Forces:  Max     0.000000080 RMS     0.000000045

 GradGradGradGradGradGradGradGradGradGradGradGradGradGradGradGradGradGrad
 Berny optimization.
 FormGI is forming the generalized inverse of G from B-inverse, IUseBI=4.
 Internal  Forces:  Max     0.000000080 RMS     0.000000068
 Search for a local minimum.
 Step number   1 out of a maximum of   20
 All quantities printed in internal units (Hartrees-Bohrs-Radians)
 Mixed Optimization -- En-DIIS/RFO-DIIS
 Second derivative matrix not updated -- first step.
 The second derivative matrix:
                          R1        R2        A1
           R1           0.54217
           R2           0.00000   0.54217
           A1           0.00000   0.00000   0.16000
 ITU=  0
     Eigenvalues ---    0.16000   0.54217   0.54217
 RFO step:  Lambda= 0.00000000D+00 EMin= 1.60000000D-01
 Linear search not attempted -- first point.
 Iteration  1 RMS(Cart)=  0.00000019 RMS(Int)=  0.00000000
 ClnCor:  largest displacement from symmetrization is 4.61D-16 for atom     1.
 Variable       Old X    -DE/DX   Delta X   Delta X   Delta X     New X
                                 (Linear)    (Quad)   (Total)
    R1        1.82534  -0.00000   0.00000  -0.00000  -0.00000   1.82534
    R2        1.82534  -0.00000   0.00000  -0.00000  -0.00000   1.82534
    A1        1.81293  -0.00000   0.00000  -0.00000  -0.00000   1.81293
         Item               Value     Threshold  Converged?
 Maximum Force            0.000000     0.000002     YES
 RMS     Force            0.000000     0.000001     YES
 Maximum Displacement     0.000000     0.000006     YES
 RMS     Displacement     0.000000     0.000004     YES
 Predicted change in Energy=-1.506778D-14
 Optimization completed.
    -- Stationary point found.
                           ----------------------------
                           !   Optimized Parameters   !
                           ! (Angstroms and Degrees)  !
 --------------------------                            --------------------------
 ! Name  Definition              Value          Derivative Info.                !
 --------------------------------------------------------------------------------
 ! R1    R(1,2)                  0.9659         -DE/DX =    0.0                 !
 ! R2    R(1,3)                  0.9659         -DE/DX =    0.0                 !
 ! A1    A(2,1,3)              103.8732         -DE/DX =    0.0                 !
 --------------------------------------------------------------------------------
 GradGradGradGradGradGradGradGradGradGradGradGradGradGradGradGradGradGrad

                          Input orientation:                          
 ---------------------------------------------------------------------
 Center     Atomic      Atomic             Coordinates (Angstroms)
 Number     Number       Type             X           Y           Z
 ---------------------------------------------------------------------
      1          8           0        0.000000   -0.000000   -0.000000
      2          1           0        0.000000   -0.000000    0.965929
      3          1           0        0.937752    0.000000   -0.231605
 ---------------------------------------------------------------------
                    Distance matrix (angstroms):
                    1          2          3
     1  O    0.000000
     2  H    0.965929   0.000000
     3  H    0.965929   1.521008   0.000000
 Stoichiometry    H2O
 Framework group  C2V[C2(O),SGV(H2)]
 Deg. of freedom     2
 Full point group                 C2V     NOp   4
 Largest Abelian subgroup         C2V     NOp   4
 Largest concise Abelian subgroup C2      NOp   2
                         Standard orientation:                         
 ---------------------------------------------------------------------
 Center     Atomic      Atomic             Coordinates (Angstroms)
 Number     Number       Type             X           Y           Z
 ---------------------------------------------------------------------
      1          8           0       -0.000000    0.000000    0.119105
      2          1           0        0.000000    0.760504   -0.476422
      3          1           0       -0.000000   -0.760504   -0.476422
 ---------------------------------------------------------------------
 Rotational constants (GHZ):    796.0575911    433.5100450    280.6669206
 B after Tr=     0.000000   -0.000000    0.000000
         Rot=    1.000000    0.000000   -0.000000    0.000000 Ang=   0.00 deg.
 Final structure in terms of initial Z-matrix:
 O
 H,1,R
 H,1,R,2,A
      Variables:
 R=0.9659289
 A=103.87320933
 1\1\GINC-ARGON\FOpt\RMP2-FC\Aug-CC-pVDZ\H2O1\B3M2A1\20-Oct-2020\0\\#MP
 2/aug-cc-pvdz #Density=current #Opt=VeryTight #Frequency=Anharmonic\\W
 ater freq\\0,1\O,0.,0.,0.\H,0.,0.,0.9659289\H,0.9377515008,0.,-0.23160
 47553\\Version=ES64L-G09RevE.01\State=1-A1\HF=-76.0407614\MP2=-76.2609
 098\RMSD=6.314e-09\RMSF=4.536e-08\Dipole=0.5821816,0.,0.4558884\Quadru
 pole=0.4168815,-1.1874578,0.7705764,0.,-0.7160429,0.\PG=C02V [C2(O1),S
 GV(H2)]\\@


 IT IS A PROFOUNDLY ERRONEOUS TRUISM ... THAT WE SHOULD CULTIVATE
 THE HABIT OF THINKING OF WHAT WE ARE DOING.
 THE PRECISE OPPOSITE IS THE CASE.
 CIVILIZATION ADVANCES BY EXTENDING THE NUMBER OF IMPORTANT OPERATIONS
 WHICH WE CAN PERFORM WITHOUT THINKING ABOUT THEM.

                                    -- ALFRED NORTH WHITEHEAD
 Job cpu time:       0 days  0 hours  0 minutes 10.0 seconds.
 File lengths (MBytes):  RWF=      5 Int=      0 D2E=      0 Chk=      1 Scr=      1
 Normal termination of Gaussian 09 at Tue Oct 20 15:45:34 2020.
 Link1:  Proceeding to internal job step number  2.
 ----------------------------------------------------------------------
 #N Geom=AllCheck Guess=TCheck SCRF=Check GenChk RMP2(FC)/Aug-CC-pVDZ F
 req
 ----------------------------------------------------------------------
 1/7=1,10=4,29=7,30=1,38=21,40=1,80=1/1,6,3;
 2/12=2,40=1/2;
 3/5=16,7=10,11=1,14=-4,16=1,25=1,30=1,70=2,71=2,116=1,140=1/1,2,3;
 4/5=101,69=2/1;
 5/5=2,38=6,96=-2,98=1/2;
 8/6=3,8=1,10=1,19=11,30=-1/1;
 9/15=3,16=-3/6;
 11/6=1,8=1,15=11,17=12,24=-1,27=1,28=-2,29=300,32=6,42=3/1,2,10;
 10/6=2,21=1,60=-2/2;
 8/6=4,8=1,10=1,19=11,30=-1/11,4;
 10/5=1,20=4,60=-2/2;
 11/12=2,14=11,16=1,17=2,28=-2,42=3/2,10,12;
 6/7=2,8=2,9=2,10=2,22=-1/1;
 7/10=1,12=2,25=1,44=2,71=2/1,2,3,16;
 1/7=1,38=20,80=1/6(3);
 7/8=1,25=2,44=-1,71=2/16,17;
 1/7=1,10=4,30=1,38=20,80=1/3;
 99/8=1000/99;
 3/5=16,7=10,11=1,14=-2,16=1,25=1,30=1,70=5,71=2,116=1,140=1/1,2,3;
 4/5=5,16=3,69=2/1;
 5/5=2,38=5,96=-2,98=1/2;
 8/6=3,8=1,10=1,19=11,30=-1/1;
 9/15=3,16=-3/6;
 11/6=1,8=1,15=11,17=12,24=-1,27=1,28=-2,29=300,32=6,42=3/1,2,10;
 10/6=2,21=1,60=-2/2;
 8/6=4,8=1,10=1,19=11,30=-1/11,4;
 10/5=1,20=4,60=-2/2;
 11/12=2,14=11,16=1,17=2,28=-2,42=3/2,10,12;
 6/7=2,8=2,9=2,10=2,22=-1/1;
 7/7=1,10=1,12=2,25=1,44=2,71=1/1,2,3,16;
 1/7=1,38=20,80=1/6(-12);
 7/8=1,25=2,44=-1,71=1/16,17;
 1/7=1,10=4,30=1,38=20,80=1/3;
 99/8=1000/99;
 Structure from the checkpoint file:  "HOH_freq2.chk"
 ----------
 Water freq
 ----------
 Charge =  0 Multiplicity = 1
 Redundant internal coordinates found in file.
 O,0,0.,0.,0.
 H,0,0.,0.,0.9659289
 H,0,0.9377515008,0.,-0.2316047553
 Recover connectivity data from disk.
 Numerical evaluation of third derivatives.
 Nuclear step= 0.010000 Angstroms, electric field step= 0.000333 atomic units, NStep=1.

 GradGradGradGradGradGradGradGradGradGradGradGradGradGradGradGradGradGrad
 Berny optimization.
 Initialization pass.
                           ----------------------------
                           !    Initial Parameters    !
                           ! (Angstroms and Degrees)  !
 --------------------------                            --------------------------
 ! Name  Definition              Value          Derivative Info.                !
 --------------------------------------------------------------------------------
 ! R1    R(1,2)                  0.9659         calculate D2E/DX2 analytically  !
 ! R2    R(1,3)                  0.9659         calculate D2E/DX2 analytically  !
 ! A1    A(2,1,3)              103.8732         calculate D2E/DX2 analytically  !
 --------------------------------------------------------------------------------
 Trust Radius=3.00D-01 FncErr=1.00D-07 GrdErr=1.00D-07
 Number of steps in this run=      2 maximum allowed number of steps=      2.
 GradGradGradGradGradGradGradGradGradGradGradGradGradGradGradGradGradGrad

                          Input orientation:                          
 ---------------------------------------------------------------------
 Center     Atomic      Atomic             Coordinates (Angstroms)
 Number     Number       Type             X           Y           Z
 ---------------------------------------------------------------------
      1          8           0       -0.000000    0.000000   -0.000000
      2          1           0       -0.000000   -0.000000    0.965929
      3          1           0        0.937752    0.000000   -0.231605
 ---------------------------------------------------------------------
                    Distance matrix (angstroms):
                    1          2          3
     1  O    0.000000
     2  H    0.965929   0.000000
     3  H    0.965929   1.521008   0.000000
 Stoichiometry    H2O
 Framework group  C2V[C2(O),SGV(H2)]
 Deg. of freedom     2
 Full point group                 C2V     NOp   4
 Largest Abelian subgroup         C2V     NOp   4
 Largest concise Abelian subgroup C2      NOp   2
                         Standard orientation:                         
 ---------------------------------------------------------------------
 Center     Atomic      Atomic             Coordinates (Angstroms)
 Number     Number       Type             X           Y           Z
 ---------------------------------------------------------------------
      1          8           0       -0.000000    0.000000    0.119105
      2          1           0        0.000000    0.760504   -0.476422
      3          1           0       -0.000000   -0.760504   -0.476422
 ---------------------------------------------------------------------
 Rotational constants (GHZ):    796.0575911    433.5100450    280.6669206
 Standard basis: Aug-CC-pVDZ (5D, 7F)
 There are    20 symmetry adapted cartesian basis functions of A1  symmetry.
 There are     4 symmetry adapted cartesian basis functions of A2  symmetry.
 There are     7 symmetry adapted cartesian basis functions of B1  symmetry.
 There are    12 symmetry adapted cartesian basis functions of B2  symmetry.
 There are    18 symmetry adapted basis functions of A1  symmetry.
 There are     4 symmetry adapted basis functions of A2  symmetry.
 There are     7 symmetry adapted basis functions of B1  symmetry.
 There are    12 symmetry adapted basis functions of B2  symmetry.
    41 basis functions,    65 primitive gaussians,    43 cartesian basis functions
     5 alpha electrons        5 beta electrons
       nuclear repulsion energy         9.1133972799 Hartrees.
 NAtoms=    3 NActive=    3 NUniq=    2 SFac= 2.25D+00 NAtFMM=   60 NAOKFM=F Big=F
 Integral buffers will be    131072 words long.
 Raffenetti 1 integral format.
 Two-electron integral symmetry is turned on.
 One-electron integrals computed using PRISM.
 NBasis=    41 RedAO= T EigKep=  2.88D-03  NBF=    18     4     7    12
 NBsUse=    41 1.00D-06 EigRej= -1.00D+00 NBFU=    18     4     7    12
 Initial guess from the checkpoint file:  "HOH_freq2.chk"
 B after Tr=    -0.000000    0.000000    0.000000
         Rot=    1.000000   -0.000000   -0.000000    0.000000 Ang=   0.00 deg.
 Initial guess orbital symmetries:
       Occupied  (A1) (A1) (B2) (A1) (B1)
       Virtual   (A1) (B2) (A1) (B1) (A1) (B2) (B2) (A1) (A2) (A1)
                 (B1) (B2) (A1) (B2) (B2) (A1) (B1) (A1) (A2) (A1)
                 (B2) (B1) (A1) (B2) (A2) (B1) (A1) (B2) (A1) (B2)
                 (A1) (B1) (A1) (A2) (A1) (B2)
 Keep R1 ints in memory in symmetry-blocked form, NReq=1235623.
 Requested convergence on RMS density matrix=1.00D-08 within 128 cycles.
 Requested convergence on MAX density matrix=1.00D-06.
 Requested convergence on             energy=1.00D-06.
 No special actions if energy rises.
 SCF Done:  E(RHF) =  -76.0407613895     A.U. after    1 cycles
            NFock=  1  Conv=0.32D-09     -V/T= 2.0019
 ExpMin= 2.97D-02 ExpMax= 1.17D+04 ExpMxC= 4.01D+02 IAcc=3 IRadAn=         5 AccDes= 0.00D+00
 HarFok:  IExCor=  205 AccDes= 0.00D+00 IRadAn=         5 IDoV=-2 UseB2=F ITyADJ=14
 ICtDFT= 12500011 ScaDFX=  1.000000  1.000000  1.000000  1.000000
 Range of M.O.s used for correlation:     2    41
 NBasis=    41 NAE=     5 NBE=     5 NFC=     1 NFV=     0
 NROrb=     40 NOA=     4 NOB=     4 NVA=    36 NVB=    36
 Disk-based method using ON**2 memory for  4 occupieds at a time.
 Permanent disk used for amplitudes=       38700 words.
 Estimated scratch disk usage=      995293 words.
 Actual    scratch disk usage=      995293 words.
 JobTyp=1 Pass  1:  I=   2 to   5 NPSUse=  8 ParTrn=T ParDer=T DoDerP=T.
 (rs|ai) integrals will be sorted in core.
 Spin components of T(2) and E(2):
     alpha-alpha T2 =       0.7789720820D-02 E2=     -0.2800145361D-01
     alpha-beta  T2 =       0.4409744259D-01 E2=     -0.1641454688D+00
     beta-beta   T2 =       0.7789720820D-02 E2=     -0.2800145361D-01
 ANorm=    0.1029406083D+01
 E2 =    -0.2201483760D+00 EUMP2 =    -0.76260909765447D+02
 G2DrvN: will do     4 centers at a time, making    1 passes.
 Calling FoFCou, ICntrl=  3107 FMM=F I1Cent=   0 AccDes= 0.00D+00.
 End of G2Drv F.D. properties file   721 does not exist.
 End of G2Drv F.D. properties file   722 does not exist.
 End of G2Drv F.D. properties file   788 does not exist.
          IDoAtm=111
          Differentiating once with respect to electric field.
                with respect to dipole field.
          Differentiating once with respect to nuclear coordinates.
 Keep R1 ints in memory in symmetry-blocked form, NReq=1218505.
          There are    12 degrees of freedom in the 1st order CPHF.  IDoFFX=6 NUNeed=    12.
      9 vectors produced by pass  0 Test12= 1.50D-15 8.33D-09 XBig12= 1.90D+00 6.78D-01.
 AX will form     9 AO Fock derivatives at one time.
      9 vectors produced by pass  1 Test12= 1.50D-15 8.33D-09 XBig12= 1.26D-01 1.37D-01.
      9 vectors produced by pass  2 Test12= 1.50D-15 8.33D-09 XBig12= 5.55D-03 2.75D-02.
      9 vectors produced by pass  3 Test12= 1.50D-15 8.33D-09 XBig12= 6.61D-05 2.62D-03.
      9 vectors produced by pass  4 Test12= 1.50D-15 8.33D-09 XBig12= 5.98D-07 3.08D-04.
      9 vectors produced by pass  5 Test12= 1.50D-15 8.33D-09 XBig12= 9.44D-10 1.17D-05.
      7 vectors produced by pass  6 Test12= 1.50D-15 8.33D-09 XBig12= 6.20D-12 8.44D-07.
      2 vectors produced by pass  7 Test12= 1.50D-15 8.33D-09 XBig12= 2.92D-14 5.88D-08.
 InvSVY:  IOpt=1 It=  1 EMax= 4.44D-16
 Solved reduced A of dimension    63 with     9 vectors.
 End of Minotr F.D. properties file   721 does not exist.
 End of Minotr F.D. properties file   722 does not exist.
 End of Minotr F.D. properties file   788 does not exist.
 MDV=   131072000.
 Form MO integral derivatives with frozen-active canonical formalism.
 Discarding MO integrals.
 Reordered first order wavefunction length =        64800
 In DefCFB: NBatch=  1 ICI=  5 ICA= 36 LFMax= 36
            Large arrays: LIAPS=     1269360 LIARS=     1354500 words.
 Semi-Direct transformation.
 ModeAB=           4 MOrb=             5 LenV=     130878987
 LASXX=       153955 LTotXX=      153955 LenRXX=      319150
 LTotAB=      165195 MaxLAS=      141655 LenRXY=           0
 NonZer=      473105 LenScr=     1419264 LnRSAI=      141655
 LnScr1=      785920 LExtra=           0 Total=      2665989
 MaxDsk=          -1 SrtSym=           T ITran=            4
 JobTyp=0 Pass  1:  I=   1 to   5.
 (rs|ai) integrals will be sorted in core.
 Spin components of T(2) and E(2):
     alpha-alpha T2 =       0.7789720820D-02 E2=     -0.2800145361D-01
     alpha-beta  T2 =       0.4409744259D-01 E2=     -0.1641454688D+00
     beta-beta   T2 =       0.7789720820D-02 E2=     -0.2800145361D-01
 ANorm=    0.1455800044D+01
 E2 =    -0.2201483760D+00 EUMP2 =    -0.76260909765447D+02
          IDoAtm=111
          Differentiating once with respect to electric field.
                with respect to dipole field.
          Differentiating once with respect to nuclear coordinates.
          There are     1 degrees of freedom in the 1st order CPHF.  IDoFFX=0 NUNeed=     1.
 LinEq1:  Iter=  0 NonCon=     1 RMS=8.33D-03 Max=6.68D-02 NDo=     1
 LinEq1:  Iter=  1 NonCon=     1 RMS=1.78D-03 Max=1.05D-02 NDo=     1
 LinEq1:  Iter=  2 NonCon=     1 RMS=6.71D-04 Max=5.04D-03 NDo=     1
 LinEq1:  Iter=  3 NonCon=     1 RMS=6.81D-05 Max=4.01D-04 NDo=     1
 LinEq1:  Iter=  4 NonCon=     1 RMS=7.26D-06 Max=3.01D-05 NDo=     1
 LinEq1:  Iter=  5 NonCon=     1 RMS=1.48D-06 Max=6.75D-06 NDo=     1
 LinEq1:  Iter=  6 NonCon=     1 RMS=2.31D-07 Max=1.19D-06 NDo=     1
 LinEq1:  Iter=  7 NonCon=     1 RMS=2.27D-08 Max=1.69D-07 NDo=     1
 LinEq1:  Iter=  8 NonCon=     1 RMS=2.52D-09 Max=1.71D-08 NDo=     1
 LinEq1:  Iter=  9 NonCon=     1 RMS=2.02D-10 Max=1.23D-09 NDo=     1
 LinEq1:  Iter= 10 NonCon=     0 RMS=1.63D-11 Max=9.57D-11 NDo=     1
 Linear equations converged to 1.000D-10 1.000D-09 after    10 iterations.
 End of Minotr F.D. properties file   721 does not exist.
 End of Minotr F.D. properties file   722 does not exist.
 End of Minotr F.D. properties file   788 does not exist.
 Symmetrizing basis deriv contribution to polar:
 IMax=3 JMax=2 DiffMx= 0.00D+00
 G2DrvN: will do     4 centers at a time, making    1 passes.
 Calling FoFCou, ICntrl=  3107 FMM=F I1Cent=   0 AccDes= 0.00D+00.
 End of G2Drv F.D. properties file   721 does not exist.
 End of G2Drv F.D. properties file   722 does not exist.
 End of G2Drv F.D. properties file   788 does not exist.
 R2 and R3 integrals will be kept in memory, NReq=     1715862.
 DD1Dir will call FoFMem   1 times, MxPair=        30
 NAB=    15 NAA=     0 NBB=     0.
 Discarding MO integrals.

 **********************************************************************

            Population analysis using the MP2 density.

 **********************************************************************

 Orbital symmetries:
       Occupied  (A1) (A1) (B2) (A1) (B1)
       Virtual   (A1) (B2) (A1) (B1) (A1) (B2) (B2) (A1) (A2) (A1)
                 (B1) (B2) (A1) (B2) (B2) (A1) (B1) (A1) (A2) (A1)
                 (B2) (B1) (A1) (B2) (A2) (B1) (A1) (B2) (A1) (B2)
                 (A1) (B1) (A1) (A2) (A1) (B2)
 The electronic state is 1-A1.
 Alpha  occ. eigenvalues --  -20.57901  -1.35264  -0.71331  -0.58523  -0.50891
 Alpha virt. eigenvalues --    0.03523   0.05794   0.17410   0.19718   0.22209
 Alpha virt. eigenvalues --    0.23191   0.28795   0.33127   0.38552   0.40158
 Alpha virt. eigenvalues --    0.43156   0.53856   0.64620   0.65791   0.80618
 Alpha virt. eigenvalues --    0.92914   1.10253   1.11663   1.14807   1.30153
 Alpha virt. eigenvalues --    1.46351   1.47976   1.58168   1.99853   2.00484
 Alpha virt. eigenvalues --    2.10547   2.35722   2.46684   2.61030   2.71037
 Alpha virt. eigenvalues --    2.96998   3.67298   3.68914   3.70083   4.01231
 Alpha virt. eigenvalues --    4.29190
          Condensed to atoms (all electrons):
               1          2          3
     1  O    7.602994   0.317728   0.317728
     2  H    0.317728   0.612029  -0.048982
     3  H    0.317728  -0.048982   0.612029
 Mulliken charges:
               1
     1  O   -0.238450
     2  H    0.119225
     3  H    0.119225
 Sum of Mulliken charges =  -0.00000
 Mulliken charges with hydrogens summed into heavy atoms:
               1
     1  O   -0.000000
 APT charges:
               1
     1  O   -0.502422
     2  H    0.251211
     3  H    0.251211
 Sum of APT charges =  -0.00000
 APT charges with hydrogens summed into heavy atoms:
               1
     1  O   -0.000000
 Electronic spatial extent (au):  <R**2>=             20.2956
 Charge=             -0.0000 electrons
 Dipole moment (field-independent basis, Debye):
    X=             -0.0000    Y=             -0.0000    Z=             -1.8795  Tot=              1.8795
 Quadrupole moment (field-independent basis, Debye-Ang):
   XX=             -7.9361   YY=             -4.5483   ZZ=             -6.5324
   XY=              0.0000   XZ=              0.0000   YZ=              0.0000
 Traceless Quadrupole moment (field-independent basis, Debye-Ang):
   XX=             -1.5972   YY=              1.7906   ZZ=             -0.1935
   XY=              0.0000   XZ=              0.0000   YZ=              0.0000
 Octapole moment (field-independent basis, Debye-Ang**2):
  XXX=              0.0000  YYY=              0.0000  ZZZ=             -1.0069  XYY=             -0.0000
  XXY=             -0.0000  XXZ=             -0.2315  XZZ=              0.0000  YZZ=             -0.0000
  YYZ=             -1.3075  XYZ=             -0.0000
 Hexadecapole moment (field-independent basis, Debye-Ang**3):
 XXXX=             -7.9500 YYYY=             -6.8010 ZZZZ=             -8.2553 XXXY=             -0.0000
 XXXZ=             -0.0000 YYYX=             -0.0000 YYYZ=              0.0000 ZZZX=             -0.0000
 ZZZY=              0.0000 XXYY=             -2.7899 XXZZ=             -2.7532 YYZZ=             -2.2112
 XXYZ=             -0.0000 YYXZ=              0.0000 ZZXY=             -0.0000
 N-N= 9.113397279930D+00 E-N=-1.985159003228D+02  KE= 7.601378985263D+01
 Symmetry A1   KE= 6.797285712937D+01
 Symmetry A2   KE= 1.784998665455D-02
 Symmetry B1   KE= 4.364767270978D+00
 Symmetry B2   KE= 3.658315465632D+00
  Exact polarizability:   8.775   0.000   9.957   0.000  -0.000   9.173
 Approx polarizability:   5.939   0.000   7.868   0.000  -0.000   7.098
 Calling FoFJK, ICntrl=  10100127 FMM=F ISym2X=1 I1Cent= 0 IOpClX= 0 NMat=1 NMatS=1 NMatT=0.
 Full mass-weighted force constant matrix:
 Low frequencies ---   -0.0009   -0.0003    0.0026    0.9212    1.0488    1.2059
 Low frequencies --- 1622.3030 3803.2996 3937.5246
 Diagonal vibrational polarizability:
        0.0000000       0.1163303       0.6974549
 Harmonic frequencies (cm**-1), IR intensities (KM/Mole), Raman scattering
 activities (A**4/AMU), depolarization ratios for plane and unpolarized
 incident light, reduced masses (AMU), force constants (mDyne/A),
 and normal coordinates:
                      1                      2                      3
                     A1                     A1                     B2
 Frequencies --   1622.3030              3803.2996              3937.5246
 Red. masses --      1.0823                 1.0455                 1.0812
 Frc consts  --      1.6783                 8.9101                 9.8768
 IR Inten    --     67.4561                 4.1428                67.0203
  Atom  AN      X      Y      Z        X      Y      Z        X      Y      Z
     1   8    -0.00   0.00  -0.07     0.00   0.00   0.05    -0.00  -0.07   0.00
     2   1     0.00   0.43   0.56     0.00   0.58  -0.40     0.00   0.56  -0.43
     3   1     0.00  -0.43   0.56    -0.00  -0.58  -0.40     0.00   0.56   0.43

 -------------------
 - Thermochemistry -
 -------------------
 Temperature   298.150 Kelvin.  Pressure   1.00000 Atm.
 Atom     1 has atomic number  8 and mass  15.99491
 Atom     2 has atomic number  1 and mass   1.00783
 Atom     3 has atomic number  1 and mass   1.00783
 Molecular mass:    18.01056 amu.
 Principal axes and moments of inertia in atomic units:
                           1         2         3
     Eigenvalues --     2.26710   4.16309   6.43019
           X            0.00000   0.00000   1.00000
           Y            1.00000   0.00000   0.00000
           Z            0.00000   1.00000   0.00000
 This molecule is an asymmetric top.
 Rotational symmetry number  2.
 Rotational temperatures (Kelvin)     38.20469    20.80518    13.46987
 Rotational constants (GHZ):         796.05759   433.51005   280.66692
 Zero-point vibrational energy      56003.9 (Joules/Mol)
                                   13.38526 (Kcal/Mol)
 Vibrational temperatures:   2334.13  5472.09  5665.21
          (Kelvin)
 
 Zero-point correction=                           0.021331 (Hartree/Particle)
 Thermal correction to Energy=                    0.024166
 Thermal correction to Enthalpy=                  0.025110
 Thermal correction to Gibbs Free Energy=         0.003672
 Sum of electronic and zero-point Energies=            -76.239579
 Sum of electronic and thermal Energies=               -76.236743
 Sum of electronic and thermal Enthalpies=             -76.235799
 Sum of electronic and thermal Free Energies=          -76.257237
 
                     E (Thermal)             CV                S
                      KCal/Mol        Cal/Mol-Kelvin    Cal/Mol-Kelvin
 Total                   15.165              6.010             45.120
 Electronic               0.000              0.000              0.000
 Translational            0.889              2.981             34.608
 Rotational               0.889              2.981             10.505
 Vibrational             13.387              0.049              0.007
                       Q            Log10(Q)             Ln(Q)
 Total Bot       0.204568D-01         -1.689163         -3.889442
 Total V=0       0.132523D+09          8.122291         18.702265
 Vib (Bot)       0.154426D-09         -9.811281        -22.591309
 Vib (V=0)       0.100040D+01          0.000173          0.000398
 Electronic      0.100000D+01          0.000000          0.000000
 Translational   0.300432D+07          6.477746         14.915562
 Rotational      0.440932D+02          1.644371          3.786305
 ***** Axes restored to original set *****
 -------------------------------------------------------------------
 Center     Atomic                   Forces (Hartrees/Bohr)
 Number     Number              X              Y              Z
 -------------------------------------------------------------------
      1        8           0.000000052    0.000000000    0.000000041
      2        1           0.000000018    0.000000000   -0.000000077
      3        1          -0.000000070   -0.000000000    0.000000036
 -------------------------------------------------------------------
 Cartesian Forces:  Max     0.000000077 RMS     0.000000043
 FormGI is forming the generalized inverse of G from B-inverse, IUseBI=4.
 NDeriv=   3 NFrqRd=  0 NDerD0=   0 MskFDP=       0 MskDFD=       0 MskDF0=       0
 At 1st pt F.D. properties file   721 does not exist.
 At 1st pt F.D. properties file   722 does not exist.
 D2Numr ... symmetry will not be used.
 Standard basis: Aug-CC-pVDZ (5D, 7F)
    41 basis functions,    65 primitive gaussians,    43 cartesian basis functions
     5 alpha electrons        5 beta electrons
       nuclear repulsion energy         9.1106545782 Hartrees.
 NAtoms=    3 NActive=    3 NUniq=    3 SFac= 1.00D+00 NAtFMM=   60 NAOKFM=F Big=F
 Integral buffers will be    131072 words long.
 Raffenetti 1 integral format.
 Two-electron integral symmetry is turned off.
 One-electron integrals computed using PRISM.
 NBasis=    41 RedAO= T EigKep=  2.70D-03  NBF=    41
 NBsUse=    41 1.00D-06 EigRej= -1.00D+00 NBFU=    41
 Initial guess from the checkpoint file:  "HOH_freq2.chk"
 B after Tr=    -0.000000    0.000000   -0.001008
         Rot=    1.000000    0.000000    0.000000    0.000000 Ang=   0.00 deg.
 Keep R1 ints in memory in canonical form, NReq=1232584.
 Requested convergence on RMS density matrix=1.00D-08 within 128 cycles.
 Requested convergence on MAX density matrix=1.00D-06.
 Requested convergence on             energy=1.00D-06.
 No special actions if energy rises.
 SCF Done:  E(RHF) =  -76.0406369501     A.U. after    8 cycles
            NFock=  8  Conv=0.51D-08     -V/T= 2.0019
 ExpMin= 2.97D-02 ExpMax= 1.17D+04 ExpMxC= 4.01D+02 IAcc=3 IRadAn=         5 AccDes= 0.00D+00
 HarFok:  IExCor=  205 AccDes= 0.00D+00 IRadAn=         5 IDoV=-2 UseB2=F ITyADJ=14
 ICtDFT= 12500011 ScaDFX=  1.000000  1.000000  1.000000  1.000000
 Range of M.O.s used for correlation:     2    41
 NBasis=    41 NAE=     5 NBE=     5 NFC=     1 NFV=     0
 NROrb=     40 NOA=     4 NOB=     4 NVA=    36 NVB=    36
 Disk-based method using ON**2 memory for  4 occupieds at a time.
 Permanent disk used for amplitudes=       38700 words.
 Estimated scratch disk usage=     1088011 words.
 Actual    scratch disk usage=     1088011 words.
 JobTyp=1 Pass  1:  I=   2 to   5 NPSUse=  8 ParTrn=T ParDer=T DoDerP=T.
 (rs|ai) integrals will be sorted in core.
 Spin components of T(2) and E(2):
     alpha-alpha T2 =       0.7798724721D-02 E2=     -0.2801536715D-01
     alpha-beta  T2 =       0.4415003448D-01 E2=     -0.1642242320D+00
     beta-beta   T2 =       0.7798724721D-02 E2=     -0.2801536715D-01
 ANorm=    0.1029440374D+01
 E2 =    -0.2202549663D+00 EUMP2 =    -0.76260891916434D+02
 G2DrvN: will do     4 centers at a time, making    1 passes.
 Calling FoFCou, ICntrl=  3107 FMM=F I1Cent=   0 AccDes= 0.00D+00.
 End of G2Drv F.D. properties file   721 does not exist.
 End of G2Drv F.D. properties file   722 does not exist.
 End of G2Drv F.D. properties file   788 does not exist.
          IDoAtm=111
          Differentiating once with respect to electric field.
                with respect to dipole field.
          Differentiating once with respect to nuclear coordinates.
 Keep R1 ints in memory in canonical form, NReq=1215447.
          There are    12 degrees of freedom in the 1st order CPHF.  IDoFFX=6 NUNeed=    12.
      9 vectors produced by pass  0 Test12= 1.50D-15 8.33D-09 XBig12= 1.90D+00 6.77D-01.
 AX will form     9 AO Fock derivatives at one time.
      9 vectors produced by pass  1 Test12= 1.50D-15 8.33D-09 XBig12= 1.28D-01 1.39D-01.
      9 vectors produced by pass  2 Test12= 1.50D-15 8.33D-09 XBig12= 5.60D-03 2.73D-02.
      9 vectors produced by pass  3 Test12= 1.50D-15 8.33D-09 XBig12= 6.65D-05 2.65D-03.
      9 vectors produced by pass  4 Test12= 1.50D-15 8.33D-09 XBig12= 5.96D-07 3.07D-04.
      9 vectors produced by pass  5 Test12= 1.50D-15 8.33D-09 XBig12= 9.46D-10 1.18D-05.
      7 vectors produced by pass  6 Test12= 1.50D-15 8.33D-09 XBig12= 6.22D-12 8.28D-07.
      2 vectors produced by pass  7 Test12= 1.50D-15 8.33D-09 XBig12= 2.85D-14 5.74D-08.
 InvSVY:  IOpt=1 It=  1 EMax= 5.55D-16
 Solved reduced A of dimension    63 with     9 vectors.
 End of Minotr F.D. properties file   721 does not exist.
 End of Minotr F.D. properties file   722 does not exist.
 End of Minotr F.D. properties file   788 does not exist.
 MDV=   131072000.
 Form MO integral derivatives with frozen-active canonical formalism.
 Discarding MO integrals.
 Reordered first order wavefunction length =        64800
 In DefCFB: NBatch=  1 ICI=  5 ICA= 36 LFMax= 36
            Large arrays: LIAPS=     1269360 LIARS=     1354500 words.
 Semi-Direct transformation.
 ModeAB=           2 MOrb=             5 LenV=     130879587
 LASXX=       153955 LTotXX=      153955 LenRXX=      153955
 LTotAB=      165195 MaxLAS=      193930 LenRXY=      193930
 NonZer=      307910 LenScr=      923648 LnRSAI=           0
 LnScr1=           0 LExtra=           0 Total=      1271533
 MaxDsk=          -1 SrtSym=           F ITran=            4
 JobTyp=0 Pass  1:  I=   1 to   5.
 (rs|ai) integrals will be sorted in core.
 Spin components of T(2) and E(2):
     alpha-alpha T2 =       0.7798724721D-02 E2=     -0.2801536715D-01
     alpha-beta  T2 =       0.4415003448D-01 E2=     -0.1642242320D+00
     beta-beta   T2 =       0.7798724721D-02 E2=     -0.2801536715D-01
 ANorm=    0.1455848539D+01
 E2 =    -0.2202549663D+00 EUMP2 =    -0.76260891916434D+02
          IDoAtm=111
          Differentiating once with respect to electric field.
                with respect to dipole field.
          Differentiating once with respect to nuclear coordinates.
          There are     1 degrees of freedom in the 1st order CPHF.  IDoFFX=0 NUNeed=     1.
 LinEq1:  Iter=  0 NonCon=     1 RMS=8.34D-03 Max=6.69D-02 NDo=     1
 LinEq1:  Iter=  1 NonCon=     1 RMS=1.79D-03 Max=1.05D-02 NDo=     1
 LinEq1:  Iter=  2 NonCon=     1 RMS=6.73D-04 Max=5.07D-03 NDo=     1
 LinEq1:  Iter=  3 NonCon=     1 RMS=6.87D-05 Max=4.03D-04 NDo=     1
 LinEq1:  Iter=  4 NonCon=     1 RMS=7.29D-06 Max=3.04D-05 NDo=     1
 LinEq1:  Iter=  5 NonCon=     1 RMS=1.47D-06 Max=6.72D-06 NDo=     1
 LinEq1:  Iter=  6 NonCon=     1 RMS=2.31D-07 Max=1.18D-06 NDo=     1
 LinEq1:  Iter=  7 NonCon=     1 RMS=2.28D-08 Max=1.69D-07 NDo=     1
 LinEq1:  Iter=  8 NonCon=     1 RMS=2.51D-09 Max=1.72D-08 NDo=     1
 LinEq1:  Iter=  9 NonCon=     1 RMS=2.03D-10 Max=1.23D-09 NDo=     1
 LinEq1:  Iter= 10 NonCon=     0 RMS=1.64D-11 Max=9.62D-11 NDo=     1
 Linear equations converged to 1.000D-10 1.000D-09 after    10 iterations.
 End of Minotr F.D. properties file   721 does not exist.
 End of Minotr F.D. properties file   722 does not exist.
 End of Minotr F.D. properties file   788 does not exist.
 Symmetrizing basis deriv contribution to polar:
 IMax=3 JMax=2 DiffMx= 0.00D+00
 G2DrvN: will do     4 centers at a time, making    1 passes.
 Calling FoFCou, ICntrl=  3107 FMM=F I1Cent=   0 AccDes= 0.00D+00.
 End of G2Drv F.D. properties file   721 does not exist.
 End of G2Drv F.D. properties file   722 does not exist.
 End of G2Drv F.D. properties file   788 does not exist.
 R2 and R3 integrals will be kept in memory, NReq=     1715862.
 DD1Dir will call FoFMem   1 times, MxPair=        30
 NAB=    15 NAA=     0 NBB=     0.
 Discarding MO integrals.

 **********************************************************************

            Population analysis using the MP2 density.

 **********************************************************************

 Alpha  occ. eigenvalues --  -20.57949  -1.35300  -0.71133  -0.58685  -0.50912
 Alpha virt. eigenvalues --    0.03515   0.05801   0.17400   0.19730   0.22218
 Alpha virt. eigenvalues --    0.23220   0.28731   0.33254   0.38598   0.39983
 Alpha virt. eigenvalues --    0.43020   0.53934   0.64581   0.65807   0.80378
 Alpha virt. eigenvalues --    0.93172   1.10343   1.11788   1.14797   1.29726
 Alpha virt. eigenvalues --    1.46201   1.47854   1.58240   2.00047   2.00231
 Alpha virt. eigenvalues --    2.10785   2.34702   2.46728   2.61070   2.70803
 Alpha virt. eigenvalues --    2.97737   3.67355   3.68991   3.70037   4.00683
 Alpha virt. eigenvalues --    4.29269
          Condensed to atoms (all electrons):
               1          2          3
     1  O    7.604310   0.316840   0.316840
     2  H    0.316840   0.612311  -0.048146
     3  H    0.316840  -0.048146   0.612311
 Mulliken charges:
               1
     1  O   -0.237989
     2  H    0.118995
     3  H    0.118995
 Sum of Mulliken charges =  -0.00000
 Mulliken charges with hydrogens summed into heavy atoms:
               1
     1  O   -0.000000
 APT charges:
               1
     1  O   -0.499033
     2  H    0.249517
     3  H    0.249517
 Sum of APT charges =  -0.00000
 APT charges with hydrogens summed into heavy atoms:
               1
     1  O   -0.000000
 Electronic spatial extent (au):  <R**2>=             20.2978
 Charge=             -0.0000 electrons
 Dipole moment (field-independent basis, Debye):
    X=              0.0000    Y=              0.0000    Z=             -1.8920  Tot=              1.8920
 Quadrupole moment (field-independent basis, Debye-Ang):
   XX=             -7.9357   YY=             -4.5843   ZZ=             -6.5041
   XY=              0.0000   XZ=             -0.0000   YZ=             -0.0000
 Traceless Quadrupole moment (field-independent basis, Debye-Ang):
   XX=             -1.5943   YY=              1.7570   ZZ=             -0.1627
   XY=              0.0000   XZ=             -0.0000   YZ=             -0.0000
 Octapole moment (field-independent basis, Debye-Ang**2):
  XXX=              0.0000  YYY=              0.0000  ZZZ=             -1.0091  XYY=             -0.0000
  XXY=              0.0000  XXZ=             -0.2279  XZZ=              0.0000  YZZ=              0.0000
  YYZ=             -1.3026  XYZ=             -0.0000
 Hexadecapole moment (field-independent basis, Debye-Ang**3):
 XXXX=             -7.9455 YYYY=             -6.8286 ZZZZ=             -8.2579 XXXY=              0.0000
 XXXZ=             -0.0000 YYYX=              0.0000 YYYZ=             -0.0000 ZZZX=             -0.0000
 ZZZY=             -0.0000 XXYY=             -2.7859 XXZZ=             -2.7549 YYZZ=             -2.2029
 XXYZ=             -0.0000 YYXZ=             -0.0000 ZZXY=              0.0000
 N-N= 9.110654578185D+00 E-N=-1.985089097821D+02  KE= 7.601354327959D+01
  Exact polarizability:   8.780  -0.000   9.942   0.000   0.000   9.197
 Approx polarizability:   5.940  -0.000   7.855   0.000   0.000   7.134
 Calling FoFJK, ICntrl=  10100127 FMM=F ISym2X=0 I1Cent= 0 IOpClX= 0 NMat=1 NMatS=1 NMatT=0.
 -------------------------------------------------------------------
 Center     Atomic                   Forces (Hartrees/Bohr)
 Number     Number              X              Y              Z
 -------------------------------------------------------------------
      1        8           0.000000000    0.000000000   -0.002065732
      2        1           0.000000000    0.000777004    0.001032866
      3        1          -0.000000000   -0.000777004    0.001032866
 -------------------------------------------------------------------
 Cartesian Forces:  Max     0.002065732 RMS     0.000919441
 NDeriv=   3 NFrqRd=  0 NDerD0=   0 MskFDP=       0 MskDFD=       0 MskDF0=       0
 Re-enter D2Numr: Normal Mode=  1 IStep= 1.
 Standard basis: Aug-CC-pVDZ (5D, 7F)
    41 basis functions,    65 primitive gaussians,    43 cartesian basis functions
     5 alpha electrons        5 beta electrons
       nuclear repulsion energy         9.1156624497 Hartrees.
 NAtoms=    3 NActive=    3 NUniq=    3 SFac= 1.00D+00 NAtFMM=   60 NAOKFM=F Big=F
 Integral buffers will be    131072 words long.
 Raffenetti 1 integral format.
 Two-electron integral symmetry is turned off.
 One-electron integrals computed using PRISM.
 NBasis=    41 RedAO= T EigKep=  2.76D-03  NBF=    41
 NBsUse=    41 1.00D-06 EigRej= -1.00D+00 NBFU=    41
 Initial guess from the checkpoint file:  "HOH_freq2.chk"
 B after Tr=    -0.000000   -0.000000    0.002016
         Rot=    1.000000   -0.000000    0.000000    0.000000 Ang=   0.00 deg.
 Keep R1 ints in memory in canonical form, NReq=1232584.
 Requested convergence on RMS density matrix=1.00D-08 within 128 cycles.
 Requested convergence on MAX density matrix=1.00D-06.
 Requested convergence on             energy=1.00D-06.
 No special actions if energy rises.
 SCF Done:  E(RHF) =  -76.0408413166     A.U. after    9 cycles
            NFock=  9  Conv=0.28D-08     -V/T= 2.0019
 ExpMin= 2.97D-02 ExpMax= 1.17D+04 ExpMxC= 4.01D+02 IAcc=3 IRadAn=         5 AccDes= 0.00D+00
 HarFok:  IExCor=  205 AccDes= 0.00D+00 IRadAn=         5 IDoV=-2 UseB2=F ITyADJ=14
 ICtDFT= 12500011 ScaDFX=  1.000000  1.000000  1.000000  1.000000
 Range of M.O.s used for correlation:     2    41
 NBasis=    41 NAE=     5 NBE=     5 NFC=     1 NFV=     0
 NROrb=     40 NOA=     4 NOB=     4 NVA=    36 NVB=    36
 Disk-based method using ON**2 memory for  4 occupieds at a time.
 Permanent disk used for amplitudes=       38700 words.
 Estimated scratch disk usage=     1088011 words.
 Actual    scratch disk usage=     1088011 words.
 JobTyp=1 Pass  1:  I=   2 to   5 NPSUse=  8 ParTrn=T ParDer=T DoDerP=T.
 (rs|ai) integrals will be sorted in core.
 Spin components of T(2) and E(2):
     alpha-alpha T2 =       0.7781547168D-02 E2=     -0.2798897469D-01
     alpha-beta  T2 =       0.4404917060D-01 E2=     -0.1640727814D+00
     beta-beta   T2 =       0.7781547168D-02 E2=     -0.2798897469D-01
 ANorm=    0.1029374696D+01
 E2 =    -0.2200507308D+00 EUMP2 =    -0.76260892047384D+02
 G2DrvN: will do     4 centers at a time, making    1 passes.
 Calling FoFCou, ICntrl=  3107 FMM=F I1Cent=   0 AccDes= 0.00D+00.
 End of G2Drv F.D. properties file   721 does not exist.
 End of G2Drv F.D. properties file   722 does not exist.
 End of G2Drv F.D. properties file   788 does not exist.
          IDoAtm=111
          Differentiating once with respect to electric field.
                with respect to dipole field.
          Differentiating once with respect to nuclear coordinates.
 Keep R1 ints in memory in canonical form, NReq=1215447.
          There are    12 degrees of freedom in the 1st order CPHF.  IDoFFX=6 NUNeed=    12.
      9 vectors produced by pass  0 Test12= 1.50D-15 8.33D-09 XBig12= 1.90D+00 6.79D-01.
 AX will form     9 AO Fock derivatives at one time.
      9 vectors produced by pass  1 Test12= 1.50D-15 8.33D-09 XBig12= 1.24D-01 1.35D-01.
      9 vectors produced by pass  2 Test12= 1.50D-15 8.33D-09 XBig12= 5.49D-03 2.77D-02.
      9 vectors produced by pass  3 Test12= 1.50D-15 8.33D-09 XBig12= 6.57D-05 2.59D-03.
      9 vectors produced by pass  4 Test12= 1.50D-15 8.33D-09 XBig12= 6.00D-07 3.10D-04.
      9 vectors produced by pass  5 Test12= 1.50D-15 8.33D-09 XBig12= 9.43D-10 1.17D-05.
      7 vectors produced by pass  6 Test12= 1.50D-15 8.33D-09 XBig12= 6.18D-12 8.56D-07.
      2 vectors produced by pass  7 Test12= 1.50D-15 8.33D-09 XBig12= 2.96D-14 5.94D-08.
 InvSVY:  IOpt=1 It=  1 EMax= 6.66D-16
 Solved reduced A of dimension    63 with     9 vectors.
 End of Minotr F.D. properties file   721 does not exist.
 End of Minotr F.D. properties file   722 does not exist.
 End of Minotr F.D. properties file   788 does not exist.
 MDV=   131072000.
 Form MO integral derivatives with frozen-active canonical formalism.
 Discarding MO integrals.
 Reordered first order wavefunction length =        64800
 In DefCFB: NBatch=  1 ICI=  5 ICA= 36 LFMax= 36
            Large arrays: LIAPS=     1269360 LIARS=     1354500 words.
 Semi-Direct transformation.
 ModeAB=           2 MOrb=             5 LenV=     130879587
 LASXX=       153955 LTotXX=      153955 LenRXX=      153955
 LTotAB=      165195 MaxLAS=      193930 LenRXY=      193930
 NonZer=      307910 LenScr=      923648 LnRSAI=           0
 LnScr1=           0 LExtra=           0 Total=      1271533
 MaxDsk=          -1 SrtSym=           F ITran=            4
 JobTyp=0 Pass  1:  I=   1 to   5.
 (rs|ai) integrals will be sorted in core.
 Spin components of T(2) and E(2):
     alpha-alpha T2 =       0.7781547168D-02 E2=     -0.2798897469D-01
     alpha-beta  T2 =       0.4404917060D-01 E2=     -0.1640727814D+00
     beta-beta   T2 =       0.7781547168D-02 E2=     -0.2798897469D-01
 ANorm=    0.1455755656D+01
 E2 =    -0.2200507308D+00 EUMP2 =    -0.76260892047384D+02
          IDoAtm=111
          Differentiating once with respect to electric field.
                with respect to dipole field.
          Differentiating once with respect to nuclear coordinates.
          There are     1 degrees of freedom in the 1st order CPHF.  IDoFFX=0 NUNeed=     1.
 LinEq1:  Iter=  0 NonCon=     1 RMS=8.33D-03 Max=6.68D-02 NDo=     1
 LinEq1:  Iter=  1 NonCon=     1 RMS=1.78D-03 Max=1.04D-02 NDo=     1
 LinEq1:  Iter=  2 NonCon=     1 RMS=6.68D-04 Max=5.01D-03 NDo=     1
 LinEq1:  Iter=  3 NonCon=     1 RMS=6.76D-05 Max=3.98D-04 NDo=     1
 LinEq1:  Iter=  4 NonCon=     1 RMS=7.25D-06 Max=2.99D-05 NDo=     1
 LinEq1:  Iter=  5 NonCon=     1 RMS=1.49D-06 Max=6.76D-06 NDo=     1
 LinEq1:  Iter=  6 NonCon=     1 RMS=2.31D-07 Max=1.19D-06 NDo=     1
 LinEq1:  Iter=  7 NonCon=     1 RMS=2.26D-08 Max=1.70D-07 NDo=     1
 LinEq1:  Iter=  8 NonCon=     1 RMS=2.52D-09 Max=1.70D-08 NDo=     1
 LinEq1:  Iter=  9 NonCon=     1 RMS=2.02D-10 Max=1.24D-09 NDo=     1
 LinEq1:  Iter= 10 NonCon=     0 RMS=1.62D-11 Max=9.52D-11 NDo=     1
 Linear equations converged to 1.000D-10 1.000D-09 after    10 iterations.
 End of Minotr F.D. properties file   721 does not exist.
 End of Minotr F.D. properties file   722 does not exist.
 End of Minotr F.D. properties file   788 does not exist.
 Symmetrizing basis deriv contribution to polar:
 IMax=3 JMax=2 DiffMx= 0.00D+00
 G2DrvN: will do     4 centers at a time, making    1 passes.
 Calling FoFCou, ICntrl=  3107 FMM=F I1Cent=   0 AccDes= 0.00D+00.
 End of G2Drv F.D. properties file   721 does not exist.
 End of G2Drv F.D. properties file   722 does not exist.
 End of G2Drv F.D. properties file   788 does not exist.
 R2 and R3 integrals will be kept in memory, NReq=     1715862.
 DD1Dir will call FoFMem   1 times, MxPair=        30
 NAB=    15 NAA=     0 NBB=     0.
 Discarding MO integrals.

 **********************************************************************

            Population analysis using the MP2 density.

 **********************************************************************

 Alpha  occ. eigenvalues --  -20.57854  -1.35225  -0.71524  -0.58361  -0.50870
 Alpha virt. eigenvalues --    0.03531   0.05786   0.17420   0.19706   0.22199
 Alpha virt. eigenvalues --    0.23162   0.28859   0.33000   0.38506   0.40333
 Alpha virt. eigenvalues --    0.43292   0.53776   0.64657   0.65774   0.80860
 Alpha virt. eigenvalues --    0.92645   1.10159   1.11531   1.14815   1.30605
 Alpha virt. eigenvalues --    1.46494   1.48095   1.58098   1.99661   2.00748
 Alpha virt. eigenvalues --    2.10296   2.36698   2.46638   2.60991   2.71267
 Alpha virt. eigenvalues --    2.96243   3.67238   3.68827   3.70127   4.01820
 Alpha virt. eigenvalues --    4.29074
          Condensed to atoms (all electrons):
               1          2          3
     1  O    7.601942   0.318591   0.318591
     2  H    0.318591   0.611637  -0.049789
     3  H    0.318591  -0.049789   0.611637
 Mulliken charges:
               1
     1  O   -0.239123
     2  H    0.119562
     3  H    0.119562
 Sum of Mulliken charges =  -0.00000
 Mulliken charges with hydrogens summed into heavy atoms:
               1
     1  O   -0.000000
 APT charges:
               1
     1  O   -0.505866
     2  H    0.252933
     3  H    0.252933
 Sum of APT charges =  -0.00000
 APT charges with hydrogens summed into heavy atoms:
               1
     1  O   -0.000000
 Electronic spatial extent (au):  <R**2>=             20.2942
 Charge=             -0.0000 electrons
 Dipole moment (field-independent basis, Debye):
    X=             -0.0000    Y=              0.0000    Z=             -1.8668  Tot=              1.8668
 Quadrupole moment (field-independent basis, Debye-Ang):
   XX=             -7.9367   YY=             -4.5122   ZZ=             -6.5606
   XY=              0.0000   XZ=              0.0000   YZ=             -0.0000
 Traceless Quadrupole moment (field-independent basis, Debye-Ang):
   XX=             -1.6002   YY=              1.8243   ZZ=             -0.2241
   XY=              0.0000   XZ=              0.0000   YZ=             -0.0000
 Octapole moment (field-independent basis, Debye-Ang**2):
  XXX=              0.0000  YYY=             -0.0000  ZZZ=             -1.0048  XYY=             -0.0000
  XXY=              0.0000  XXZ=             -0.2351  XZZ=             -0.0000  YZZ=             -0.0000
  YYZ=             -1.3121  XYZ=             -0.0000
 Hexadecapole moment (field-independent basis, Debye-Ang**3):
 XXXX=             -7.9550 YYYY=             -6.7735 ZZZZ=             -8.2534 XXXY=              0.0000
 XXXZ=             -0.0000 YYYX=              0.0000 YYYZ=              0.0000 ZZZX=             -0.0000
 ZZZY=              0.0000 XXYY=             -2.7942 XXZZ=             -2.7517 YYZZ=             -2.2199
 XXYZ=             -0.0000 YYXZ=             -0.0000 ZZXY=              0.0000
 N-N= 9.115662449720D+00 E-N=-1.985217988984D+02  KE= 7.601384381336D+01
  Exact polarizability:   8.771  -0.000   9.973  -0.000  -0.000   9.150
 Approx polarizability:   5.937  -0.000   7.881  -0.000  -0.000   7.064
 Calling FoFJK, ICntrl=  10100127 FMM=F ISym2X=0 I1Cent= 0 IOpClX= 0 NMat=1 NMatS=1 NMatT=0.
 -------------------------------------------------------------------
 Center     Atomic                   Forces (Hartrees/Bohr)
 Number     Number              X              Y              Z
 -------------------------------------------------------------------
      1        8           0.000000000   -0.000000000    0.002014806
      2        1           0.000000000   -0.000789187   -0.001007403
      3        1          -0.000000000    0.000789187   -0.001007403
 -------------------------------------------------------------------
 Cartesian Forces:  Max     0.002014806 RMS     0.000902761
 NDeriv=   3 NFrqRd=  0 NDerD0=   0 MskFDP=       0 MskDFD=       0 MskDF0=       0
 Re-enter D2Numr: Normal Mode=  1 IStep= 2.
 Standard basis: Aug-CC-pVDZ (5D, 7F)
    41 basis functions,    65 primitive gaussians,    43 cartesian basis functions
     5 alpha electrons        5 beta electrons
       nuclear repulsion energy         9.0460049922 Hartrees.
 NAtoms=    3 NActive=    3 NUniq=    3 SFac= 1.00D+00 NAtFMM=   60 NAOKFM=F Big=F
 Integral buffers will be    131072 words long.
 Raffenetti 1 integral format.
 Two-electron integral symmetry is turned off.
 One-electron integrals computed using PRISM.
 NBasis=    41 RedAO= T EigKep=  2.82D-03  NBF=    41
 NBsUse=    41 1.00D-06 EigRej= -1.00D+00 NBFU=    41
 Initial guess from the checkpoint file:  "HOH_freq2.chk"
 B after Tr=    -0.000000   -0.000000   -0.000729
         Rot=    1.000000   -0.000000    0.000000    0.000000 Ang=   0.00 deg.
 Keep R1 ints in memory in canonical form, NReq=1232584.
 Requested convergence on RMS density matrix=1.00D-08 within 128 cycles.
 Requested convergence on MAX density matrix=1.00D-06.
 Requested convergence on             energy=1.00D-06.
 No special actions if energy rises.
 SCF Done:  E(RHF) =  -76.0400281639     A.U. after    8 cycles
            NFock=  8  Conv=0.98D-08     -V/T= 2.0023
 ExpMin= 2.97D-02 ExpMax= 1.17D+04 ExpMxC= 4.01D+02 IAcc=3 IRadAn=         5 AccDes= 0.00D+00
 HarFok:  IExCor=  205 AccDes= 0.00D+00 IRadAn=         5 IDoV=-2 UseB2=F ITyADJ=14
 ICtDFT= 12500011 ScaDFX=  1.000000  1.000000  1.000000  1.000000
 Range of M.O.s used for correlation:     2    41
 NBasis=    41 NAE=     5 NBE=     5 NFC=     1 NFV=     0
 NROrb=     40 NOA=     4 NOB=     4 NVA=    36 NVB=    36
 Disk-based method using ON**2 memory for  4 occupieds at a time.
 Permanent disk used for amplitudes=       38700 words.
 Estimated scratch disk usage=     1088011 words.
 Actual    scratch disk usage=     1088011 words.
 JobTyp=1 Pass  1:  I=   2 to   5 NPSUse=  8 ParTrn=T ParDer=T DoDerP=T.
 (rs|ai) integrals will be sorted in core.
 Spin components of T(2) and E(2):
     alpha-alpha T2 =       0.7849654564D-02 E2=     -0.2807293686D-01
     alpha-beta  T2 =       0.4449276125D-01 E2=     -0.1646396304D+00
     beta-beta   T2 =       0.7849654564D-02 E2=     -0.2807293686D-01
 ANorm=    0.1029656287D+01
 E2 =    -0.2207855041D+00 EUMP2 =    -0.76260813667974D+02
 G2DrvN: will do     4 centers at a time, making    1 passes.
 Calling FoFCou, ICntrl=  3107 FMM=F I1Cent=   0 AccDes= 0.00D+00.
 End of G2Drv F.D. properties file   721 does not exist.
 End of G2Drv F.D. properties file   722 does not exist.
 End of G2Drv F.D. properties file   788 does not exist.
          IDoAtm=111
          Differentiating once with respect to electric field.
                with respect to dipole field.
          Differentiating once with respect to nuclear coordinates.
 Keep R1 ints in memory in canonical form, NReq=1215447.
          There are    12 degrees of freedom in the 1st order CPHF.  IDoFFX=6 NUNeed=    12.
      9 vectors produced by pass  0 Test12= 1.50D-15 8.33D-09 XBig12= 1.94D+00 6.87D-01.
 AX will form     9 AO Fock derivatives at one time.
      9 vectors produced by pass  1 Test12= 1.50D-15 8.33D-09 XBig12= 1.30D-01 1.41D-01.
      9 vectors produced by pass  2 Test12= 1.50D-15 8.33D-09 XBig12= 5.77D-03 2.86D-02.
      9 vectors produced by pass  3 Test12= 1.50D-15 8.33D-09 XBig12= 7.00D-05 2.67D-03.
      9 vectors produced by pass  4 Test12= 1.50D-15 8.33D-09 XBig12= 6.21D-07 3.19D-04.
      9 vectors produced by pass  5 Test12= 1.50D-15 8.33D-09 XBig12= 9.76D-10 1.21D-05.
      7 vectors produced by pass  6 Test12= 1.50D-15 8.33D-09 XBig12= 6.34D-12 8.58D-07.
      2 vectors produced by pass  7 Test12= 1.50D-15 8.33D-09 XBig12= 3.08D-14 6.12D-08.
 InvSVY:  IOpt=1 It=  1 EMax= 3.33D-16
 Solved reduced A of dimension    63 with     9 vectors.
 End of Minotr F.D. properties file   721 does not exist.
 End of Minotr F.D. properties file   722 does not exist.
 End of Minotr F.D. properties file   788 does not exist.
 MDV=   131072000.
 Form MO integral derivatives with frozen-active canonical formalism.
 Discarding MO integrals.
 Reordered first order wavefunction length =        64800
 In DefCFB: NBatch=  1 ICI=  5 ICA= 36 LFMax= 36
            Large arrays: LIAPS=     1269360 LIARS=     1354500 words.
 Semi-Direct transformation.
 ModeAB=           2 MOrb=             5 LenV=     130879587
 LASXX=       153955 LTotXX=      153955 LenRXX=      153955
 LTotAB=      165195 MaxLAS=      193930 LenRXY=      193930
 NonZer=      307910 LenScr=      923648 LnRSAI=           0
 LnScr1=           0 LExtra=           0 Total=      1271533
 MaxDsk=          -1 SrtSym=           F ITran=            4
 JobTyp=0 Pass  1:  I=   1 to   5.
 (rs|ai) integrals will be sorted in core.
 Spin components of T(2) and E(2):
     alpha-alpha T2 =       0.7849654564D-02 E2=     -0.2807293686D-01
     alpha-beta  T2 =       0.4449276125D-01 E2=     -0.1646396304D+00
     beta-beta   T2 =       0.7849654564D-02 E2=     -0.2807293686D-01
 ANorm=    0.1456153886D+01
 E2 =    -0.2207855041D+00 EUMP2 =    -0.76260813667974D+02
          IDoAtm=111
          Differentiating once with respect to electric field.
                with respect to dipole field.
          Differentiating once with respect to nuclear coordinates.
          There are     1 degrees of freedom in the 1st order CPHF.  IDoFFX=0 NUNeed=     1.
 LinEq1:  Iter=  0 NonCon=     1 RMS=8.41D-03 Max=6.77D-02 NDo=     1
 LinEq1:  Iter=  1 NonCon=     1 RMS=1.81D-03 Max=1.07D-02 NDo=     1
 LinEq1:  Iter=  2 NonCon=     1 RMS=6.85D-04 Max=5.16D-03 NDo=     1
 LinEq1:  Iter=  3 NonCon=     1 RMS=7.01D-05 Max=4.12D-04 NDo=     1
 LinEq1:  Iter=  4 NonCon=     1 RMS=7.56D-06 Max=3.16D-05 NDo=     1
 LinEq1:  Iter=  5 NonCon=     1 RMS=1.52D-06 Max=6.91D-06 NDo=     1
 LinEq1:  Iter=  6 NonCon=     1 RMS=2.39D-07 Max=1.22D-06 NDo=     1
 LinEq1:  Iter=  7 NonCon=     1 RMS=2.34D-08 Max=1.73D-07 NDo=     1
 LinEq1:  Iter=  8 NonCon=     1 RMS=2.58D-09 Max=1.77D-08 NDo=     1
 LinEq1:  Iter=  9 NonCon=     1 RMS=2.09D-10 Max=1.26D-09 NDo=     1
 LinEq1:  Iter= 10 NonCon=     0 RMS=1.72D-11 Max=1.01D-10 NDo=     1
 Linear equations converged to 1.000D-10 1.000D-09 after    10 iterations.
 End of Minotr F.D. properties file   721 does not exist.
 End of Minotr F.D. properties file   722 does not exist.
 End of Minotr F.D. properties file   788 does not exist.
 Symmetrizing basis deriv contribution to polar:
 IMax=3 JMax=2 DiffMx= 0.00D+00
 G2DrvN: will do     4 centers at a time, making    1 passes.
 Calling FoFCou, ICntrl=  3107 FMM=F I1Cent=   0 AccDes= 0.00D+00.
 End of G2Drv F.D. properties file   721 does not exist.
 End of G2Drv F.D. properties file   722 does not exist.
 End of G2Drv F.D. properties file   788 does not exist.
 R2 and R3 integrals will be kept in memory, NReq=     1715862.
 DD1Dir will call FoFMem   1 times, MxPair=        30
 NAB=    15 NAA=     0 NBB=     0.
 Discarding MO integrals.

 **********************************************************************

            Population analysis using the MP2 density.

 **********************************************************************

 Alpha  occ. eigenvalues --  -20.58020  -1.34901  -0.70946  -0.58383  -0.50834
 Alpha virt. eigenvalues --    0.03511   0.05790   0.17427   0.19753   0.22152
 Alpha virt. eigenvalues --    0.23213   0.28588   0.33031   0.38498   0.40053
 Alpha virt. eigenvalues --    0.43049   0.53748   0.64426   0.65738   0.80303
 Alpha virt. eigenvalues --    0.92692   1.10328   1.11697   1.14740   1.29888
 Alpha virt. eigenvalues --    1.46136   1.47754   1.57950   1.99287   2.00073
 Alpha virt. eigenvalues --    2.10082   2.35383   2.45270   2.59426   2.70782
 Alpha virt. eigenvalues --    2.96850   3.67257   3.68761   3.69922   4.00331
 Alpha virt. eigenvalues --    4.27637
          Condensed to atoms (all electrons):
               1          2          3
     1  O    7.623551   0.314802   0.314802
     2  H    0.314802   0.604641  -0.046021
     3  H    0.314802  -0.046021   0.604641
 Mulliken charges:
               1
     1  O   -0.253155
     2  H    0.126578
     3  H    0.126578
 Sum of Mulliken charges =   0.00000
 Mulliken charges with hydrogens summed into heavy atoms:
               1
     1  O    0.000000
 APT charges:
               1
     1  O   -0.499640
     2  H    0.249820
     3  H    0.249820
 Sum of APT charges =   0.00000
 APT charges with hydrogens summed into heavy atoms:
               1
     1  O    0.000000
 Electronic spatial extent (au):  <R**2>=             20.3959
 Charge=              0.0000 electrons
 Dipole moment (field-independent basis, Debye):
    X=              0.0000    Y=             -0.0000    Z=             -1.8826  Tot=              1.8826
 Quadrupole moment (field-independent basis, Debye-Ang):
   XX=             -7.9566   YY=             -4.5337   ZZ=             -6.5373
   XY=              0.0000   XZ=              0.0000   YZ=              0.0000
 Traceless Quadrupole moment (field-independent basis, Debye-Ang):
   XX=             -1.6141   YY=              1.8088   ZZ=             -0.1948
   XY=              0.0000   XZ=              0.0000   YZ=              0.0000
 Octapole moment (field-independent basis, Debye-Ang**2):
  XXX=              0.0000  YYY=             -0.0000  ZZZ=             -0.9871  XYY=             -0.0000
  XXY=             -0.0000  XXZ=             -0.2220  XZZ=              0.0000  YZZ=             -0.0000
  YYZ=             -1.3248  XYZ=             -0.0000
 Hexadecapole moment (field-independent basis, Debye-Ang**3):
 XXXX=             -7.9893 YYYY=             -6.8609 ZZZZ=             -8.3218 XXXY=              0.0000
 XXXZ=             -0.0000 YYYX=              0.0000 YYYZ=              0.0000 ZZZX=             -0.0000
 ZZZY=              0.0000 XXYY=             -2.8155 XXZZ=             -2.7723 YYZZ=             -2.2224
 XXYZ=              0.0000 YYXZ=             -0.0000 ZZXY=              0.0000
 N-N= 9.046004992206D+00 E-N=-1.983705993714D+02  KE= 7.598822690401D+01
  Exact polarizability:   8.826  -0.000  10.101  -0.000   0.000   9.273
 Approx polarizability:   5.966  -0.000   7.981  -0.000   0.000   7.182
 Calling FoFJK, ICntrl=  10100127 FMM=F ISym2X=0 I1Cent= 0 IOpClX= 0 NMat=1 NMatS=1 NMatT=0.
 -------------------------------------------------------------------
 Center     Atomic                   Forces (Hartrees/Bohr)
 Number     Number              X              Y              Z
 -------------------------------------------------------------------
      1        8           0.000000000   -0.000000000   -0.007899726
      2        1           0.000000000   -0.005803140    0.003949863
      3        1          -0.000000000    0.005803140    0.003949863
 -------------------------------------------------------------------
 Cartesian Forces:  Max     0.007899726 RMS     0.004229018
 NDeriv=   3 NFrqRd=  0 NDerD0=   0 MskFDP=       0 MskDFD=       0 MskDF0=       0
 Re-enter D2Numr: Normal Mode=  2 IStep= 1.
 Standard basis: Aug-CC-pVDZ (5D, 7F)
    41 basis functions,    65 primitive gaussians,    43 cartesian basis functions
     5 alpha electrons        5 beta electrons
       nuclear repulsion energy         9.1818011981 Hartrees.
 NAtoms=    3 NActive=    3 NUniq=    3 SFac= 1.00D+00 NAtFMM=   60 NAOKFM=F Big=F
 Integral buffers will be    131072 words long.
 Raffenetti 1 integral format.
 Two-electron integral symmetry is turned off.
 One-electron integrals computed using PRISM.
 NBasis=    41 RedAO= T EigKep=  2.65D-03  NBF=    41
 NBsUse=    41 1.00D-06 EigRej= -1.00D+00 NBFU=    41
 Initial guess from the checkpoint file:  "HOH_freq2.chk"
 B after Tr=     0.000000    0.000000    0.001458
         Rot=    1.000000    0.000000   -0.000000   -0.000000 Ang=   0.00 deg.
 Keep R1 ints in memory in canonical form, NReq=1232584.
 Requested convergence on RMS density matrix=1.00D-08 within 128 cycles.
 Requested convergence on MAX density matrix=1.00D-06.
 Requested convergence on             energy=1.00D-06.
 No special actions if energy rises.
 SCF Done:  E(RHF) =  -76.0412961925     A.U. after    9 cycles
            NFock=  9  Conv=0.17D-08     -V/T= 2.0016
 ExpMin= 2.97D-02 ExpMax= 1.17D+04 ExpMxC= 4.01D+02 IAcc=3 IRadAn=         5 AccDes= 0.00D+00
 HarFok:  IExCor=  205 AccDes= 0.00D+00 IRadAn=         5 IDoV=-2 UseB2=F ITyADJ=14
 ICtDFT= 12500011 ScaDFX=  1.000000  1.000000  1.000000  1.000000
 Range of M.O.s used for correlation:     2    41
 NBasis=    41 NAE=     5 NBE=     5 NFC=     1 NFV=     0
 NROrb=     40 NOA=     4 NOB=     4 NVA=    36 NVB=    36
 Disk-based method using ON**2 memory for  4 occupieds at a time.
 Permanent disk used for amplitudes=       38700 words.
 Estimated scratch disk usage=     1088011 words.
 Actual    scratch disk usage=     1088011 words.
 JobTyp=1 Pass  1:  I=   2 to   5 NPSUse=  8 ParTrn=T ParDer=T DoDerP=T.
 (rs|ai) integrals will be sorted in core.
 Spin components of T(2) and E(2):
     alpha-alpha T2 =       0.7730112380D-02 E2=     -0.2793006031D-01
     alpha-beta  T2 =       0.4370687826D-01 E2=     -0.1636540290D+00
     beta-beta   T2 =       0.7730112380D-02 E2=     -0.2793006031D-01
 ANorm=    0.1029158444D+01
 E2 =    -0.2195141497D+00 EUMP2 =    -0.76260810342196D+02
 G2DrvN: will do     4 centers at a time, making    1 passes.
 Calling FoFCou, ICntrl=  3107 FMM=F I1Cent=   0 AccDes= 0.00D+00.
 End of G2Drv F.D. properties file   721 does not exist.
 End of G2Drv F.D. properties file   722 does not exist.
 End of G2Drv F.D. properties file   788 does not exist.
          IDoAtm=111
          Differentiating once with respect to electric field.
                with respect to dipole field.
          Differentiating once with respect to nuclear coordinates.
 Keep R1 ints in memory in canonical form, NReq=1215447.
          There are    12 degrees of freedom in the 1st order CPHF.  IDoFFX=6 NUNeed=    12.
      9 vectors produced by pass  0 Test12= 1.50D-15 8.33D-09 XBig12= 1.86D+00 6.69D-01.
 AX will form     9 AO Fock derivatives at one time.
      9 vectors produced by pass  1 Test12= 1.50D-15 8.33D-09 XBig12= 1.22D-01 1.34D-01.
      9 vectors produced by pass  2 Test12= 1.50D-15 8.33D-09 XBig12= 5.32D-03 2.63D-02.
      9 vectors produced by pass  3 Test12= 1.50D-15 8.33D-09 XBig12= 6.22D-05 2.58D-03.
      9 vectors produced by pass  4 Test12= 1.50D-15 8.33D-09 XBig12= 5.73D-07 2.97D-04.
      9 vectors produced by pass  5 Test12= 1.50D-15 8.33D-09 XBig12= 9.12D-10 1.14D-05.
      7 vectors produced by pass  6 Test12= 1.50D-15 8.33D-09 XBig12= 6.06D-12 8.29D-07.
      2 vectors produced by pass  7 Test12= 1.50D-15 8.33D-09 XBig12= 2.77D-14 5.64D-08.
 InvSVY:  IOpt=1 It=  1 EMax= 6.66D-16
 Solved reduced A of dimension    63 with     9 vectors.
[...]
    X=     1.4798    Y=    -0.0000    Z=     1.1588
 ------------------------------------------------------------------------
  Temperature:     0K, Unit: Debye
 ------------------------------------------------------------------------
    X=     1.4816    Y=    -0.0000    Z=     1.1602
 ------------------------------------------------------------------------
  Temperature:   298K, Unit: Debye
 ------------------------------------------------------------------------
    X=     1.4816    Y=    -0.0000    Z=     1.1602

     ==================================================
          Nuclear Magnetic Resonance Spectroscopy
     ==================================================

 Nuclear quadrupole tensors
 --------------------------
 ------------------------------------------------------------------------
  Property at reference geometry
 ------------------------------------------------------------------------
              Nuclear Quadrupole in Principal Axis System
       Atom             a.u.   MegaHertz   Gauss  10(-4) cm-1        Axes
              Baa    -1.3181    95.379    34.034    31.815 -0.6165 -0.0000  0.7873
     1 O(17)  Bbb    -0.2279    16.488     5.883     5.500  0.7873 -0.0000  0.6165
              Bcc     1.5460  -111.868   -39.917   -37.315 -0.0000  1.0000  0.0000
 
              Baa    -0.4778  -254.936   -90.968   -85.038 -0.0222 -0.0000  0.9998
     2 H(1)   Bbb     0.2074   110.663    39.487    36.913  0.9998  0.0000  0.0222
              Bcc     0.2704   144.273    51.480    48.124 -0.0000  1.0000  0.0000
 
              Baa    -0.4778  -254.936   -90.968   -85.038  0.9653  0.0000 -0.2613
     3 H(1)   Bbb     0.2074   110.663    39.487    36.913  0.2613 -0.0000  0.9653
              Bcc     0.2704   144.273    51.480    48.124 -0.0000  1.0000  0.0000
 
 ------------------------------------------------------------------------
  Temperature:     0K
 ------------------------------------------------------------------------
              Nuclear Quadrupole in Principal Axis System
       Atom             a.u.   MegaHertz   Gauss  10(-4) cm-1        Axes
              Baa    -1.3100    94.793    33.824    31.619 -0.6165  0.0000  0.7873
     1 O(17)  Bbb    -0.2582    18.684     6.667     6.232  0.7873  0.0000  0.6165
              Bcc     1.5682  -113.477   -40.491   -37.852  0.0000  1.0000 -0.0000
 
              Baa    -0.4694  -250.436   -89.362   -83.536 -0.0225 -0.0000  0.9997
     2 H(1)   Bbb     0.2032   108.428    38.690    36.168  0.9997 -0.0000  0.0225
              Bcc     0.2662   142.008    50.672    47.369  0.0000  1.0000  0.0000
 
              Baa    -0.4694  -250.436   -89.362   -83.536  0.9652  0.0000 -0.2616
     3 H(1)   Bbb     0.2032   108.428    38.690    36.168  0.2616  0.0000  0.9652
              Bcc     0.2662   142.008    50.672    47.369 -0.0000  1.0000 -0.0000
 
 ------------------------------------------------------------------------
  Temperature:   298K
 ------------------------------------------------------------------------
              Nuclear Quadrupole in Principal Axis System
       Atom             a.u.   MegaHertz   Gauss  10(-4) cm-1        Axes
              Baa    -1.3100    94.793    33.824    31.619 -0.6165  0.0000  0.7873
     1 O(17)  Bbb    -0.2582    18.684     6.667     6.232  0.7873  0.0000  0.6165
              Bcc     1.5682  -113.476   -40.491   -37.852  0.0000  1.0000 -0.0000
 
              Baa    -0.4694  -250.434   -89.361   -83.536 -0.0225 -0.0000  0.9997
     2 H(1)   Bbb     0.2032   108.427    38.689    36.167  0.9997 -0.0000  0.0225
              Bcc     0.2662   142.007    50.672    47.368  0.0000  1.0000  0.0000
 
              Baa    -0.4694  -250.434   -89.361   -83.536  0.9652  0.0000 -0.2616
     3 H(1)   Bbb     0.2032   108.427    38.689    36.167  0.2616  0.0000  0.9652
              Bcc     0.2662   142.007    50.672    47.368 -0.0000  1.0000 -0.0000
 

     ==================================================
                     Resonance Analysis
     ==================================================

 Thresholds
 ----------
 Maximum Difference PT2 vs. Variational (cm-1) :      1.000
 Minimum value for Darling-Dennison term (cm-1):     10.000

 Fermi resonances
 ----------------
  No Fermi resonance found

 Darling-Dennison resonances
 ---------------------------
  No Darling-Dennison resonance found

     ==================================================
                     Anharmonic X Matrix
     ==================================================

 PT2 model: Deperturbed VPT2 (DVPT2)
 Ref.: V. Barone, J. Chem. Phys. 122, 1, 014108 (2005)

 Coriolis contributions to X Matrix (in cm^-1)
 ---------------------------------------------
                1             2             3
      1  0.000000D+00
      2  0.172747D-02  0.000000D+00
      3  0.265776D+02  0.000000D+00  0.000000D+00

 3rd Deriv. contributions to X Matrix (in cm^-1)
 -----------------------------------------------
                1             2             3
      1 -0.965669D+02
      2 -0.357168D+03 -0.921241D+02
      3  0.428508D+02  0.553701D+02 -0.122624D+02

 4th Deriv. contributions to X Matrix (in cm^-1)
 -----------------------------------------------
                1             2             3
      1  0.475281D+02
      2  0.190802D+03  0.480711D+02
      3 -0.924902D+02 -0.754058D+02 -0.176138D+01

 Total Anharmonic X Matrix (in cm^-1)
 ------------------------------------
                1             2             3
      1 -0.490388D+02
      2 -0.166364D+03 -0.440530D+02
      3 -0.230618D+02 -0.200356D+02 -0.140238D+02

     ==================================================
                Anharmonic Zero Point Energy
     ==================================================

 Anharmonic Zero Point Energy
 ----------------------------
 Harmonic       : cm-1 =  4681.56363 ; Kcal/mol =  13.385 ; KJ/mol =  56.004
 Anharm.Pot.    : cm-1 =   -64.98017 ; Kcal/mol =  -0.186 ; KJ/mol =  -0.777
 Watson+Coriolis: cm-1 =   -10.63019 ; Kcal/mol =  -0.030 ; KJ/mol =  -0.127
 X0F (Im. Freq.): cm-1 =     0.00000 ; Kcal/mol =   0.000 ; KJ/mol =   0.000
 Total Anharm   : cm-1 =  4605.95327 ; Kcal/mol =  13.169 ; KJ/mol =  55.099

     ==================================================
          Vibrational Energies at Anharmonic Level
     ==================================================

 Vibrational Energies and Rotational Constants (in cm^-1)
 --------------------------------------------------------
 Mode(Quanta)      E(harm)     E(anharm)     Aa(z)       Ba(x)       Ca(y)
 Equilibrium Geometry                       26.553255   14.461581    9.361167
 Ground State       4681.564    4605.953     26.633825   14.480493    9.127440
 Fundamental Bands (DE w.r.t. Ground State)
   1(1) active      3937.525    3744.734    25.991884   14.238543    8.982861
   2(1) active      3803.300    3621.994    26.128987   14.254162    8.948923
   3(1) active      1622.303    1572.707    27.941747   14.986597    8.983083
 Overtones (DE w.r.t. Ground State)
   1(2)             7875.049    7391.391    25.349942   13.996594    8.838282
   2(2)             7606.599    7155.881    25.624149   14.027832    8.770405
   3(2)             3244.606    3117.366    29.249668   15.492701    8.838725
 Combination Bands (DE w.r.t. Ground State)
   2(1)    1(1)     7740.824    7200.364    25.487046   14.012213    8.804344
   3(1)    1(1)     5559.828    5294.379    27.299805   14.744648    8.838504
   3(1)    2(1)     5425.603    5174.665    27.436908   14.760266    8.804565

     ==================================================
      Thermodynamic properties and Partition Functions
     ==================================================

 ZPE(harm) = 0.56004D+02 kJ/mol        ZPE(anh)= 0.55099D+02 kJ/mol

 Input values of T(K) and P(atm): 298.15   1.00
                    Harmonic value     SPT anharmonic value
 Qvib               0.15443D-09          0.22245D-09
 QZvib              0.10004D+01          0.10005D+01
 Energy             0.63449D+02          0.62546D+02         kJ/mol
 Enthalpy           0.65928D+02          0.65025D+02         kJ/mol
 Entropy            0.18878D+03          0.18879D+03         J/(mol K)
 Sp.Heat(V)         0.25147D+02          0.25186D+02         J/(mol K)
 Sp.Heat(P)         0.33461D+02          0.33500D+02         J/(mol K)

 T =  298.15 K;  P =   1.00 atm
                    Harmonic value     SPT anharmonic value
 Qvib               0.15443D-09          0.22245D-09
 QZvib              0.10004D+01          0.10005D+01
 Energy             0.63449D+02          0.62546D+02         kJ/mol
 Enthalpy           0.65928D+02          0.65025D+02         kJ/mol
 Entropy            0.18878D+03          0.18879D+03         J/(mol K)
 Sp.Heat(V)         0.25147D+02          0.25186D+02         J/(mol K)
 Sp.Heat(P)         0.33461D+02          0.33500D+02         J/(mol K)

 T =  500.00 K;  P =   1.00 atm
                    Harmonic value     SPT anharmonic value
 Qvib               0.14241D-05          0.17728D-05
 QZvib              0.10095D+01          0.10110D+01
 Energy             0.68661D+02          0.67779D+02         kJ/mol
 Enthalpy           0.72818D+02          0.71937D+02         kJ/mol
 Entropy            0.20640D+03          0.20646D+03         J/(mol K)
 Sp.Heat(V)         0.26707D+02          0.26875D+02         J/(mol K)
 Sp.Heat(P)         0.35022D+02          0.35190D+02         J/(mol K)

 T = 1000.00 K;  P =   1.00 atm
                    Harmonic value     SPT anharmonic value
 Qvib               0.13253D-02          0.14930D-02
 QZvib              0.11158D+01          0.11274D+01
 Energy             0.83385D+02          0.82671D+02         kJ/mol
 Enthalpy           0.91700D+02          0.90986D+02         kJ/mol
 Entropy            0.23235D+03          0.23263D+03         J/(mol K)
 Sp.Heat(V)         0.32311D+02          0.32821D+02         J/(mol K)
 Sp.Heat(P)         0.40625D+02          0.41136D+02         J/(mol K)

 T = 1500.00 K;  P =   1.00 atm
                    Harmonic value     SPT anharmonic value
 Qvib               0.14936D-01          0.16433D-01
 QZvib              0.13317D+01          0.13627D+01
 Energy             0.10093D+03          0.10051D+03         kJ/mol
 Enthalpy           0.11340D+03          0.11299D+03         kJ/mol
 Entropy            0.24987D+03          0.25039D+03         J/(mol K)
 Sp.Heat(V)         0.37647D+02          0.38282D+02         J/(mol K)
 Sp.Heat(P)         0.45962D+02          0.46597D+02         J/(mol K)

 T = 2000.00 K;  P =   1.00 atm
                    Harmonic value     SPT anharmonic value
 Qvib               0.56855D-01          0.62209D-01
 QZvib              0.16497D+01          0.17095D+01
 Energy             0.12076D+03          0.12065D+03         kJ/mol
 Enthalpy           0.13739D+03          0.13728D+03         kJ/mol
 Entropy            0.26365D+03          0.26434D+03         J/(mol K)
 Sp.Heat(V)         0.41422D+02          0.41979D+02         J/(mol K)
 Sp.Heat(P)         0.49736D+02          0.50293D+02         J/(mol K)

     ==================================================
               Anharmonic Transition Moments
     ==================================================

 Electric dipole : Fundamental Bands
 ------------------------------------------------------------------------
  Mode(Quanta)             X                 Y                 Z
    1(1)               -0.200555E-01     -0.752563E-16      0.256115E-01
    2(1)                0.573635E-02      0.451285E-16      0.449195E-02
    3(1)                0.407791E-01     -0.583234E-18      0.319328E-01

 Electric dipole : Overtones
 ------------------------------------------------------------------------
  Mode(Quanta)             X                 Y                 Z
    1(2)                0.277091E-03     -0.325866E-17      0.216983E-03
    2(2)               -0.129803E-02     -0.360645E-17     -0.101645E-02
    3(2)               -0.261057E-02     -0.637709E-17     -0.204426E-02

 Electric dipole : Combination Bands
 ------------------------------------------------------------------------
  Mode(Quanta)             X                 Y                 Z
    2(1)    1(1)        0.268391E-02      0.844536E-17     -0.342742E-02
    3(1)    1(1)        0.408464E-02      0.341870E-17     -0.521619E-02
    3(1)    2(1)       -0.678889E-03     -0.575234E-18     -0.531617E-03
 ERROR: Missing derivatives of the polarizability tensor moment.

     ==================================================
              Anharmonic Infrared Spectroscopy
     ==================================================

 Units: Energies (E) in cm^-1
        Integrated intensity (I) in km.mol^-1

 Fundamental Bands
 -----------------
    Mode(Quanta)       E(harm)   E(anharm)       I(harm)        I(anharm)
     1(1)              3937.525   3744.734     67.02031831     64.17034279
     2(1)              3803.300   3621.994      4.14281519      3.11359906
     3(1)              1622.303   1572.707     67.45606550     68.32307007

 Overtones
 ---------
    Mode(Quanta)       E(harm)   E(anharm)                      I(anharm)
     1(2)              7875.049   7391.391                      0.01482583
     2(2)              7606.599   7155.881                      0.31497697
     3(2)              3244.606   3117.366                      0.55501343

 Combination Bands
 -----------------
    Mode(Quanta)       E(harm)   E(anharm)                      I(anharm)
     2(1)     1(1)     7740.824   7200.364                      2.20970792
     3(1)     1(1)     5559.828   5294.379                      3.76327874
     3(1)     2(1)     5425.603   5174.665                      0.06230526


 GradGradGradGradGradGradGradGradGradGradGradGradGradGradGradGradGradGrad
 Berny optimization.
 Internal  Forces:  Max     0.000000077 RMS     0.000000066
 Search for a local minimum.
 Step number   1 out of a maximum of    2
 All quantities printed in internal units (Hartrees-Bohrs-Radians)
 Second derivative matrix not updated -- analytic derivatives used.
 The second derivative matrix:
                          R1        R2        A1
           R1           0.53833
           R2          -0.01015   0.53833
           A1           0.03108   0.03108   0.15878
 ITU=  0
     Eigenvalues ---    0.15362   0.53334   0.54848
 Angle between quadratic step and forces=  90.00 degrees.
 Linear search not attempted -- first point.
 Iteration  1 RMS(Cart)=  0.00000016 RMS(Int)=  0.00000000
 ClnCor:  largest displacement from symmetrization is 3.03D-16 for atom     1.
 Variable       Old X    -DE/DX   Delta X   Delta X   Delta X     New X
                                 (Linear)    (Quad)   (Total)
    R1        1.82534  -0.00000   0.00000  -0.00000  -0.00000   1.82534
    R2        1.82534  -0.00000   0.00000  -0.00000  -0.00000   1.82534
    A1        1.81293  -0.00000   0.00000  -0.00000  -0.00000   1.81293
         Item               Value     Threshold  Converged?
 Maximum Force            0.000000     0.000002     YES
 RMS     Force            0.000000     0.000001     YES
 Maximum Displacement     0.000000     0.000006     YES
 RMS     Displacement     0.000000     0.000004     YES
 Predicted change in Energy=-1.317945D-14
 Optimization completed.
    -- Stationary point found.
                           ----------------------------
                           !   Optimized Parameters   !
                           ! (Angstroms and Degrees)  !
 --------------------------                            --------------------------
 ! Name  Definition              Value          Derivative Info.                !
 --------------------------------------------------------------------------------
 ! R1    R(1,2)                  0.9659         -DE/DX =    0.0                 !
 ! R2    R(1,3)                  0.9659         -DE/DX =    0.0                 !
 ! A1    A(2,1,3)              103.8732         -DE/DX =    0.0                 !
 --------------------------------------------------------------------------------
 GradGradGradGradGradGradGradGradGradGradGradGradGradGradGradGradGradGrad

 1\1\GINC-ARGON\Freq\RMP2-FC\Aug-CC-pVDZ\H2O1\B3M2A1\20-Oct-2020\0\\#N 
 Geom=AllCheck Guess=TCheck SCRF=Check GenChk RMP2(FC)/Aug-CC-pVDZ Freq
 \\Water freq\\0,1\O,0.,0.,0.\H,0.,0.,0.9659289\H,0.9377515008,0.,-0.23
 16047553\\Version=ES64L-G09RevE.01\State=1-A1\HF=-76.0407614\MP2=-76.2
 609098\RMSD=3.248e-10\RMSF=4.340e-08\ZeroPoint=0.0213308\Thermal=0.024
 1663\Dipole=0.5821816,0.,0.4558883\DipoleDeriv=-0.4038097,0.,0.0862276
 ,0.,-0.6570551,0.,0.0862276,0.,-0.4464025,0.2640241,0.,-0.0505107,0.,0
 .3285276,0.,-0.0664012,0.,0.161082,0.1397856,0.,-0.0357169,0.,0.328527
 6,0.,-0.0198264,0.,0.2853205\Polar=9.4708927,0.,8.7753177,-0.3806367,0
 .,9.6589111\Quadrupole=0.4168815,-1.1874578,0.7705764,0.,-0.7160429,0.
 \PG=C02V [C2(O1),SGV(H2)]\NImag=0\\0.53964069,0.,0.00000006,-0.1098998
 9,0.,0.59392658,-0.04255058,0.,-0.03332001,0.04765389,0.,-0.00000003,0
 .,0.,0.00000004,0.03095827,0.,-0.52423305,-0.01702614,0.,0.53832986,-0
 .49709011,0.,0.14321990,-0.00510331,0.,-0.01393213,0.50219342,0.,-0.00
 000003,0.,0.,-0.00000001,0.,0.,0.00000004,0.07894162,0.,-0.06969352,0.
 05034616,0.,-0.01409681,-0.12928778,0.,0.08379033\\-0.00000005,0.,-0.0
 0000004,-0.00000002,0.,0.00000008,0.00000007,0.,-0.00000004\\-0.051431
 05,0.,0.09593513,0.34315864,0.,-0.22093688,0.01481681,0.,-0.17053654,0
 .02098431,0.,-0.04796757,0.,0.,0.00956665,-0.16723859,0.,0.12136715,0.
 14044016,0.,-0.07151421,0.03661424,0.,-0.17262210,-0.03580112,0.,0.026
 79844,-0.00081311,0.,-0.04796757,0.,0.,0.03840091,0.,0.,0.00956665,-0.
 17592005,0.,0.09956972,0.03009639,0.,-0.04985294,0.14582366,0.,-0.0497
 1678,-1.14673929,0.,0.38163281,0.37363994,0.,-1.33130159,-0.16037339,0
 .,0.02595287,0.15051295,0.,-0.19081641,0.,0.,0.20502275,-0.03715484,0.
 ,1.39939383,0.03613876,0.,-1.42433865,1.30711268,0.,-0.39959281,0.0098
 6044,0.,0.00101607,-1.31697313,0.,-0.19081641,0.,0.,-0.01420634,0.,0.,
 0.20502275,-0.33648511,0.,-0.06809224,-0.06209163,0.,0.02494481,0.3985
 7674,0.,0.04314743,1.56332893,0.,0.00000002,-0.38610907,0.,-1.56332893
 ,-0.19508112,0.,0.01448537,0.18247681,0.,-0.21989184,0.,0.,0.21989184,
 0.01448537,0.,1.45645343,-0.01137238,0.,-1.44384910,-1.36824781,0.,0.3
 7162370,0.01260431,0.,-0.00311299,1.35564350,0.,0.21989182,0.,0.,0.,0.
 ,0.,-0.21989182,0.37162370,0.,0.10687549,-0.00311299,0.,-0.01260433,-0
 .36851071,0.,-0.09427117,-0.65210775,0.,0.02314347,-0.11061116,0.,-0.5
 9747051,-0.05069230,0.,0.22163565,0.09323669,0.,-0.01157173,0.,0.,0.00
 923502,0.07507217,0.,0.67548143,-0.13792004,0.,-0.63809093,0.70280005,
 0.,-0.11102447,-0.04254438,0.,0.06284787,-0.66025566,0.,-0.01157173,0.
 ,0.,0.00233671,0.,0.,0.00923502,0.03553900,0.,-0.07801093,-0.08371561,
 0.,-0.03739049,0.04817661,0.,0.11540142,2.46776095,0.,-1.36390767,-0.9
 2757632,0.,2.92594433,0.64370163,0.,-0.04408702,-0.64000287,0.,0.68195
 383,0.,0.,-0.71898771,0.04421733,0.,-3.34055427,-0.04731971,0.,3.36759
 478,-3.11146260,0.,0.97166335,-0.00369876,0.,0.00310238,3.11516137,0.,
 0.68195383,0.,0.,0.03703387,0.,0.,-0.71898771,0.88335900,0.,0.41460992
 ,0.09140673,0.,-0.02704051,-0.97476573,0.,-0.38756941,2.57234569,0.,-1
 .51925380,-0.77995138,0.,2.95758509,0.71788555,0.,-0.10441872,-0.72476
 204,0.,0.75962665,0.,0.,-0.75560670,-0.10554086,0.,-3.48285176,0.10615
 086,0.,3.47540062,-3.29023125,0.,0.88437012,0.00687648,0.,-0.00061000,
 3.28335477,0.,0.75962717,0.,0.,-0.00401995,0.,0.,-0.75560722,0.8854922
 6,0.,0.52526665,-0.00173214,0.,0.00745114,-0.88376012,0.,-0.53271779\\
 @


 A successful marriage requires falling in love
 many times, always with the same person.
                           -- Mignon McLaughlin
 Job cpu time:       0 days  0 hours  2 minutes 15.4 seconds.
 File lengths (MBytes):  RWF=     66 Int=      0 D2E=      0 Chk=     38 Scr=      1
 Normal termination of Gaussian 09 at Tue Oct 20 15:45:52 2020.
