HOONO freq                                                              
Freq      RMP2-FC                                                     Aug-CC-pVTZ         
Number of atoms                            I                5
Info1-9                                    I   N=           9
          29          29        1002           0           0         100
           6           2           1
Full Title                                 C   N=           1
HOONO freq  
Route                                      C   N=           6
#MP2/aug-cc-pvtz #Density=current #Opt=VeryTight #Frequency=
Anharmonic  
Charge                                     I                0
Multiplicity                               I                1
Number of electrons                        I               32
Number of alpha electrons                  I               16
Number of beta electrons                   I               16
Number of basis functions                  I              207
Number of independent functions            I              207
Number of point charges in /Mol/           I                0
Number of translation vectors              I                0
Atomic numbers                             I   N=           5
           1           8           8           7           8
Nuclear charges                            R   N=           5
  1.00000000E+00  8.00000000E+00  8.00000000E+00  7.00000000E+00  8.00000000E+00
Current cartesian coordinates              R   N=          15
  2.09584268E+00 -1.13095449E+00  0.00000000E+00  2.48725307E+00  6.89654330E-01
  0.00000000E+00  1.86032928E-16  1.73182595E+00  0.00000000E+00 -1.87324575E+00
 -8.22612199E-02  0.00000000E+00 -1.11014337E+00 -2.20813240E+00  0.00000000E+00
Number of symbols in /Mol/                 I                0
Force Field                                I                0
Atom Types                                 C   N=           5
                                                            
Int Atom Types                             I   N=           5
           0           0           0           0           0
MM charges                                 R   N=           5
  0.00000000E+00  0.00000000E+00  0.00000000E+00  0.00000000E+00  0.00000000E+00
Integer atomic weights                     I   N=           5
           1          16          16          14          16
Real atomic weights                        R   N=           5
  1.00782504E+00  1.59949146E+01  1.59949146E+01  1.40030740E+01  1.59949146E+01
Atom fragment info                         I   N=           5
           0           0           0           0           0
Atom residue num                           I   N=           5
           0           0           0           0           0
Nuclear spins                              I   N=           5
           1           0           0           2           0
Nuclear ZEff                               R   N=           5
 -1.00000000E+00 -5.60000000E+00 -5.60000000E+00 -4.55000000E+00 -5.60000000E+00
Nuclear ZNuc                               R   N=           5
  1.00000000E+00  8.00000000E+00  8.00000000E+00  7.00000000E+00  8.00000000E+00
Nuclear QMom                               R   N=           5
  0.00000000E+00  0.00000000E+00  0.00000000E+00  2.04400000E+00  0.00000000E+00
Nuclear GFac                               R   N=           5
  2.79284600E+00  0.00000000E+00  0.00000000E+00  4.03761000E-01  0.00000000E+00
MicOpt                                     I   N=           5
          -1          -1          -1          -1          -1
Number of residues                         I                0
Number of secondary structures             I                0
Redundant internal dimensions              I   N=           4
           9           4           3           2
Redundant internal coordinate indices      I   N=          36
           1           2           0           0           2           3
           0           0           3           4           0           0
           4           5           0           0           1           2
           3           0           2           3           4           0
           3           4           5           0           1           2
           3           4           2           3           4           5
Redundant internal coordinates             R   N=           9
  1.86220798E+00  2.69676649E+00  2.60767366E+00  2.25868402E+00  1.75581288E+00
  1.97545490E+00  1.99551768E+00  0.00000000E+00  0.00000000E+00
ZRed-IntVec                                I   N=           9
           0           0           0           0           0           0
           0           0           0
ZRed-FPVec                                 R   N=           9
  0.00000000E+00  0.00000000E+00  0.00000000E+00  0.00000000E+00  0.00000000E+00
  0.00000000E+00  0.00000000E+00  0.00000000E+00  0.00000000E+00
ZRed-Constraint1                           R   N=           9
  1.86220798E+00  2.69676649E+00  2.60767366E+00  2.25868402E+00  1.75581288E+00
  1.97545490E+00  1.99551768E+00  0.00000000E+00  0.00000000E+00
ZRed-Constraint2                           R   N=           9
  1.85627797E+00  2.70835548E+00  2.61632582E+00  2.25198662E+00  1.74190841E+00
  1.97192535E+00  1.99665666E+00  0.00000000E+00  0.00000000E+00
SymInf integers                            I   N=          26
           1           2           1           1           1           1
           1          -1           0           0           0           0
           0           0           0           0           0           0
           0           0           0           0           0           0
           0           0
RotTr to input orientation                 R   N=          12
 -9.74449564E-01  0.00000000E+00  2.24606430E-01  2.24606430E-01  0.00000000E+00
  9.74449564E-01  0.00000000E+00  1.00000000E+00  0.00000000E+00  2.28060829E+00
 -5.49632893E-19  6.26389513E-01
Number of contracted shells                I               65
Number of primitive shells                 I              119
Pure/Cartesian d shells                    I                0
Pure/Cartesian f shells                    I                0
Highest angular momentum                   I                3
Largest degree of contraction              I                7
Shell types                                I   N=          65
           0           0           0           0           1           1
           1          -2          -2           0           0           0
           0           0           1           1           1           1
          -2          -2          -2          -3          -3           0
           0           0           0           0           1           1
           1           1          -2          -2          -2          -3
          -3           0           0           0           0           0
           1           1           1           1          -2          -2
          -2          -3          -3           0           0           0
           0           0           1           1           1           1
          -2          -2          -2          -3          -3
Number of primitives per shell             I   N=          65
           3           1           1           1           1           1
           1           1           1           7           6           1
           1           1           3           1           1           1
           1           1           1           1           1           7
           6           1           1           1           3           1
           1           1           1           1           1           1
           1           7           6           1           1           1
           3           1           1           1           1           1
           1           1           1           7           6           1
           1           1           3           1           1           1
           1           1           1           1           1
Shell to atom map                          I   N=          65
           1           1           1           1           1           1
           1           1           1           2           2           2
           2           2           2           2           2           2
           2           2           2           2           2           3
           3           3           3           3           3           3
           3           3           3           3           3           3
           3           4           4           4           4           4
           4           4           4           4           4           4
           4           4           4           5           5           5
           5           5           5           5           5           5
           5           5           5           5           5
Primitive exponents                        R   N=         119
  3.38700000E+01  5.09500000E+00  1.15900000E+00  3.25800000E-01  1.02700000E-01
  2.52600000E-02  1.40700000E+00  3.88000000E-01  1.02000000E-01  1.05700000E+00
  2.47000000E-01  1.53300000E+04  2.29900000E+03  5.22400000E+02  1.47300000E+02
  4.75500000E+01  1.67600000E+01  6.20700000E+00  5.22400000E+02  1.47300000E+02
  4.75500000E+01  1.67600000E+01  6.20700000E+00  6.88200000E-01  1.75200000E+00
  2.38400000E-01  7.37600000E-02  3.44600000E+01  7.74900000E+00  2.28000000E+00
  7.15600000E-01  2.14000000E-01  5.97400000E-02  2.31400000E+00  6.45000000E-01
  2.14000000E-01  1.42800000E+00  5.00000000E-01  1.53300000E+04  2.29900000E+03
  5.22400000E+02  1.47300000E+02  4.75500000E+01  1.67600000E+01  6.20700000E+00
  5.22400000E+02  1.47300000E+02  4.75500000E+01  1.67600000E+01  6.20700000E+00
  6.88200000E-01  1.75200000E+00  2.38400000E-01  7.37600000E-02  3.44600000E+01
  7.74900000E+00  2.28000000E+00  7.15600000E-01  2.14000000E-01  5.97400000E-02
  2.31400000E+00  6.45000000E-01  2.14000000E-01  1.42800000E+00  5.00000000E-01
  1.14200000E+04  1.71200000E+03  3.89300000E+02  1.10000000E+02  3.55700000E+01
  1.25400000E+01  4.64400000E+00  3.89300000E+02  1.10000000E+02  3.55700000E+01
  1.25400000E+01  4.64400000E+00  5.11800000E-01  1.29300000E+00  1.78700000E-01
  5.76000000E-02  2.66300000E+01  5.94800000E+00  1.74200000E+00  5.55000000E-01
  1.72500000E-01  4.91000000E-02  1.65400000E+00  4.69000000E-01  1.51000000E-01
  1.09300000E+00  3.64000000E-01  1.53300000E+04  2.29900000E+03  5.22400000E+02
  1.47300000E+02  4.75500000E+01  1.67600000E+01  6.20700000E+00  5.22400000E+02
  1.47300000E+02  4.75500000E+01  1.67600000E+01  6.20700000E+00  6.88200000E-01
  1.75200000E+00  2.38400000E-01  7.37600000E-02  3.44600000E+01  7.74900000E+00
  2.28000000E+00  7.15600000E-01  2.14000000E-01  5.97400000E-02  2.31400000E+00
  6.45000000E-01  2.14000000E-01  1.42800000E+00  5.00000000E-01
Contraction coefficients                   R   N=         119
  2.54948632E-02  1.90362766E-01  8.52162022E-01  1.00000000E+00  1.00000000E+00
  1.00000000E+00  1.00000000E+00  1.00000000E+00  1.00000000E+00  1.00000000E+00
  1.00000000E+00  5.19808943E-04  4.02025621E-03  2.07128267E-02  8.10105536E-02
  2.35962985E-01  4.42653446E-01  3.57064423E-01 -4.42115008E-05 -1.22591041E-03
 -1.05517725E-02 -6.74452633E-02 -1.71198607E-01  1.07329856E+00  1.00000000E+00
  1.00000000E+00  1.00000000E+00  4.11634896E-02  2.57762836E-01  8.02419274E-01
  1.00000000E+00  1.00000000E+00  1.00000000E+00  1.00000000E+00  1.00000000E+00
  1.00000000E+00  1.00000000E+00  1.00000000E+00  5.19808943E-04  4.02025621E-03
  2.07128267E-02  8.10105536E-02  2.35962985E-01  4.42653446E-01  3.57064423E-01
 -4.42115008E-05 -1.22591041E-03 -1.05517725E-02 -6.74452633E-02 -1.71198607E-01
  1.07329856E+00  1.00000000E+00  1.00000000E+00  1.00000000E+00  4.11634896E-02
  2.57762836E-01  8.02419274E-01  1.00000000E+00  1.00000000E+00  1.00000000E+00
  1.00000000E+00  1.00000000E+00  1.00000000E+00  1.00000000E+00  1.00000000E+00
  5.34563860E-04  4.13435660E-03  2.12335358E-02  8.25006224E-02  2.38138871E-01
  4.42551547E-01  3.53757422E-01 -4.89867350E-05 -1.19527323E-03 -1.03490714E-02
 -6.48680190E-02 -1.71552477E-01  1.07289568E+00  1.00000000E+00  1.00000000E+00
  1.00000000E+00  3.98072123E-02  2.49002660E-01  8.10479727E-01  1.00000000E+00
  1.00000000E+00  1.00000000E+00  1.00000000E+00  1.00000000E+00  1.00000000E+00
  1.00000000E+00  1.00000000E+00  5.19808943E-04  4.02025621E-03  2.07128267E-02
  8.10105536E-02  2.35962985E-01  4.42653446E-01  3.57064423E-01 -4.42115008E-05
 -1.22591041E-03 -1.05517725E-02 -6.74452633E-02 -1.71198607E-01  1.07329856E+00
  1.00000000E+00  1.00000000E+00  1.00000000E+00  4.11634896E-02  2.57762836E-01
  8.02419274E-01  1.00000000E+00  1.00000000E+00  1.00000000E+00  1.00000000E+00
  1.00000000E+00  1.00000000E+00  1.00000000E+00  1.00000000E+00
Coordinates of each shell                  R   N=         195
  2.09584268E+00 -1.13095449E+00  0.00000000E+00  2.09584268E+00 -1.13095449E+00
  0.00000000E+00  2.09584268E+00 -1.13095449E+00  0.00000000E+00  2.09584268E+00
 -1.13095449E+00  0.00000000E+00  2.09584268E+00 -1.13095449E+00  0.00000000E+00
  2.09584268E+00 -1.13095449E+00  0.00000000E+00  2.09584268E+00 -1.13095449E+00
  0.00000000E+00  2.09584268E+00 -1.13095449E+00  0.00000000E+00  2.09584268E+00
 -1.13095449E+00  0.00000000E+00  2.48725307E+00  6.89654330E-01  0.00000000E+00
  2.48725307E+00  6.89654330E-01  0.00000000E+00  2.48725307E+00  6.89654330E-01
  0.00000000E+00  2.48725307E+00  6.89654330E-01  0.00000000E+00  2.48725307E+00
  6.89654330E-01  0.00000000E+00  2.48725307E+00  6.89654330E-01  0.00000000E+00
  2.48725307E+00  6.89654330E-01  0.00000000E+00  2.48725307E+00  6.89654330E-01
  0.00000000E+00  2.48725307E+00  6.89654330E-01  0.00000000E+00  2.48725307E+00
  6.89654330E-01  0.00000000E+00  2.48725307E+00  6.89654330E-01  0.00000000E+00
  2.48725307E+00  6.89654330E-01  0.00000000E+00  2.48725307E+00  6.89654330E-01
  0.00000000E+00  2.48725307E+00  6.89654330E-01  0.00000000E+00  1.86032928E-16
  1.73182595E+00  0.00000000E+00  1.86032928E-16  1.73182595E+00  0.00000000E+00
  1.86032928E-16  1.73182595E+00  0.00000000E+00  1.86032928E-16  1.73182595E+00
  0.00000000E+00  1.86032928E-16  1.73182595E+00  0.00000000E+00  1.86032928E-16
  1.73182595E+00  0.00000000E+00  1.86032928E-16  1.73182595E+00  0.00000000E+00
  1.86032928E-16  1.73182595E+00  0.00000000E+00  1.86032928E-16  1.73182595E+00
  0.00000000E+00  1.86032928E-16  1.73182595E+00  0.00000000E+00  1.86032928E-16
  1.73182595E+00  0.00000000E+00  1.86032928E-16  1.73182595E+00  0.00000000E+00
  1.86032928E-16  1.73182595E+00  0.00000000E+00  1.86032928E-16  1.73182595E+00
  0.00000000E+00 -1.87324575E+00 -8.22612199E-02  0.00000000E+00 -1.87324575E+00
 -8.22612199E-02  0.00000000E+00 -1.87324575E+00 -8.22612199E-02  0.00000000E+00
 -1.87324575E+00 -8.22612199E-02  0.00000000E+00 -1.87324575E+00 -8.22612199E-02
  0.00000000E+00 -1.87324575E+00 -8.22612199E-02  0.00000000E+00 -1.87324575E+00
 -8.22612199E-02  0.00000000E+00 -1.87324575E+00 -8.22612199E-02  0.00000000E+00
 -1.87324575E+00 -8.22612199E-02  0.00000000E+00 -1.87324575E+00 -8.22612199E-02
  0.00000000E+00 -1.87324575E+00 -8.22612199E-02  0.00000000E+00 -1.87324575E+00
 -8.22612199E-02  0.00000000E+00 -1.87324575E+00 -8.22612199E-02  0.00000000E+00
 -1.87324575E+00 -8.22612199E-02  0.00000000E+00 -1.11014337E+00 -2.20813240E+00
  0.00000000E+00 -1.11014337E+00 -2.20813240E+00  0.00000000E+00 -1.11014337E+00
 -2.20813240E+00  0.00000000E+00 -1.11014337E+00 -2.20813240E+00  0.00000000E+00
 -1.11014337E+00 -2.20813240E+00  0.00000000E+00 -1.11014337E+00 -2.20813240E+00
  0.00000000E+00 -1.11014337E+00 -2.20813240E+00  0.00000000E+00 -1.11014337E+00
 -2.20813240E+00  0.00000000E+00 -1.11014337E+00 -2.20813240E+00  0.00000000E+00
 -1.11014337E+00 -2.20813240E+00  0.00000000E+00 -1.11014337E+00 -2.20813240E+00
  0.00000000E+00 -1.11014337E+00 -2.20813240E+00  0.00000000E+00 -1.11014337E+00
 -2.20813240E+00  0.00000000E+00 -1.11014337E+00 -2.20813240E+00  0.00000000E+00
Num ILSW                                   I              100
ILSW                                       I   N=         100
           0           0           0           1           2           0
           0           0           0           0           0          -1
           5           0           0           0           2           0
           0           0           1           0           1           0
           1           0           0           0           0           0
           0           0      100000           0          -1           0
           0           0           0           0           0           0
           0           0           0           1           1           0
           0 -2000000000           1           0           0           0
           0           0           4          52           0           0
           0           0           0           0           0           0
           0           0           0           0           4           1
           0           0           0           0           0           0
           0           0           0           0           0           0
           0           0           0           0           0           0
           0           0           0           0           0           0
           0           0           0           0
Num RLSW                                   I               52
RLSW                                       R   N=          52
  1.00000000E+00  1.00000000E+00  1.00000000E+00  1.00000000E+00  1.00000000E+00
  0.00000000E+00  0.00000000E+00  1.00000000E+00  0.00000000E+00  0.00000000E+00
  0.00000000E+00  0.00000000E+00  1.00000000E+00  0.00000000E+00  0.00000000E+00
  0.00000000E+00  0.00000000E+00  1.00000000E+00  0.00000000E+00  0.00000000E+00
  0.00000000E+00  0.00000000E+00  1.00000000E+00  0.00000000E+00  0.00000000E+00
  0.00000000E+00  0.00000000E+00  1.00000000E+00  0.00000000E+00  0.00000000E+00
  0.00000000E+00  0.00000000E+00  1.00000000E+00  0.00000000E+00  0.00000000E+00
  0.00000000E+00  0.00000000E+00  0.00000000E+00  1.00000000E+00  1.00000000E+00
  0.00000000E+00  1.00000000E+00  0.00000000E+00  0.00000000E+00  0.00000000E+00
  0.00000000E+00  0.00000000E+00  0.00000000E+00  0.00000000E+00  0.00000000E+00
  0.00000000E+00  0.00000000E+00
MxBond                                     I                2
NBond                                      I   N=           5
           1           2           2           2           1
IBond                                      I   N=          10
           2           0           1           3           2           4
           3           5           4           0
RBond                                      R   N=          10
  1.00000000E+00  0.00000000E+00  1.00000000E+00  1.00000000E+00  1.00000000E+00
  1.00000000E+00  1.00000000E+00  2.00000000E+00  2.00000000E+00  0.00000000E+00
Virial Ratio                               R      2.002229174253407E+00
SCF Energy                                 R     -2.795064306607516E+02
MP2 Energy                                 R     -2.804552407714117E+02
Total Energy                               R     -2.804552407714117E+02
Post-SCF wavefunction norm                 R      1.583729604886336E+00
RMS Force                                  R      2.218787408249464E-07
RMS Density                                R      2.228752966428757E-09
NImag                                      I                0
Job Status                                 I                1
Nuclear derivative order                   I                3
External E-field                           R   N=          35
  0.00000000E+00  0.00000000E+00  0.00000000E+00  0.00000000E+00  0.00000000E+00
  0.00000000E+00  0.00000000E+00  0.00000000E+00  0.00000000E+00  0.00000000E+00
  0.00000000E+00  0.00000000E+00  0.00000000E+00  0.00000000E+00  0.00000000E+00
  0.00000000E+00  0.00000000E+00  0.00000000E+00  0.00000000E+00  0.00000000E+00
  0.00000000E+00  0.00000000E+00  0.00000000E+00  0.00000000E+00  0.00000000E+00
  0.00000000E+00  0.00000000E+00  0.00000000E+00  0.00000000E+00  0.00000000E+00
  0.00000000E+00  0.00000000E+00  0.00000000E+00  0.00000000E+00  0.00000000E+00
IOpCl                                      I                0
IROHF                                      I                0
Alpha Orbital Energies                     R   N=         207
 -2.07198548E+01 -2.06870594E+01 -2.06688356E+01 -1.58259621E+01 -1.64405917E+00
 -1.50415323E+00 -1.29240793E+00 -9.59708864E-01 -8.34128681E-01 -7.58814101E-01
 -7.39929511E-01 -6.35205063E-01 -6.18295067E-01 -6.17968316E-01 -5.04863419E-01
 -4.97240444E-01  3.49733954E-02  6.02683957E-02  9.51813145E-02  1.00370429E-01
  1.19802698E-01  1.22636409E-01  1.49062725E-01  1.51892292E-01  1.77684793E-01
  1.80417523E-01  1.89807921E-01  2.10888700E-01  2.16592748E-01  2.42660306E-01
  2.46385385E-01  2.69048725E-01  3.11343149E-01  3.16452969E-01  3.38240531E-01
  3.44150865E-01  3.47258830E-01  3.92772560E-01  4.47362881E-01  4.87804912E-01
  5.04990332E-01  5.18471919E-01  5.44402087E-01  5.61264910E-01  5.98646542E-01
  6.19482577E-01  6.38581116E-01  6.89674357E-01  7.17466753E-01  7.23987161E-01
  7.42898429E-01  7.63921288E-01  7.67369726E-01  7.95593789E-01  8.06346841E-01
  8.38938562E-01  8.43224727E-01  8.51859910E-01  8.85507777E-01  9.08268765E-01
  9.31632180E-01  9.47730662E-01  9.53630917E-01  1.01822332E+00  1.03168291E+00
  1.06313460E+00  1.06536429E+00  1.09454156E+00  1.14381687E+00  1.15585209E+00
  1.16972711E+00  1.22306721E+00  1.22725590E+00  1.24629424E+00  1.35220853E+00
  1.35892971E+00  1.37184494E+00  1.46884950E+00  1.48148343E+00  1.50500068E+00
  1.54019926E+00  1.59503576E+00  1.59747315E+00  1.60596480E+00  1.62920002E+00
  1.69606905E+00  1.73995230E+00  1.80046045E+00  1.82988874E+00  1.88830484E+00
  1.89510459E+00  1.93070538E+00  1.97950978E+00  1.98494434E+00  2.05168716E+00
  2.12375789E+00  2.12875026E+00  2.16387671E+00  2.18763541E+00  2.24385594E+00
  2.26039649E+00  2.29407219E+00  2.35231151E+00  2.36782150E+00  2.38483250E+00
  2.40165167E+00  2.43432559E+00  2.47103874E+00  2.47827594E+00  2.52957989E+00
  2.53722888E+00  2.55002032E+00  2.55834557E+00  2.61569831E+00  2.63161186E+00
  2.67290145E+00  2.67441880E+00  2.75540497E+00  2.80965452E+00  2.81958289E+00
  2.83938604E+00  2.91888554E+00  2.98602146E+00  3.04847227E+00  3.05099329E+00
  3.11559474E+00  3.11816781E+00  3.17151501E+00  3.21412665E+00  3.30958522E+00
  3.33069588E+00  3.36076986E+00  3.47545301E+00  3.67916298E+00  3.86928650E+00
  3.92012052E+00  4.17646154E+00  4.22015214E+00  4.22409238E+00  4.26727623E+00
  4.36897064E+00  4.49948898E+00  4.52423851E+00  4.55498541E+00  4.59471972E+00
  4.69499160E+00  4.79934450E+00  4.89828527E+00  4.91410944E+00  4.93145193E+00
  4.99717945E+00  5.00525277E+00  5.10604168E+00  5.12491027E+00  5.16740162E+00
  5.23749666E+00  5.24603567E+00  5.31455010E+00  5.34486668E+00  5.34802722E+00
  5.54718425E+00  5.64460951E+00  5.70590434E+00  5.88873327E+00  5.99530418E+00
  6.26505981E+00  6.30005602E+00  6.36266009E+00  6.37592324E+00  6.59690005E+00
  6.65872013E+00  6.66070354E+00  6.68951087E+00  6.72696154E+00  6.79644380E+00
  6.80388870E+00  6.85092646E+00  6.96898697E+00  7.01216821E+00  7.06538536E+00
  7.07116700E+00  7.13580217E+00  7.17501223E+00  7.17577634E+00  7.19293528E+00
  7.24377126E+00  7.24394360E+00  7.27170947E+00  7.34924154E+00  7.39389873E+00
  7.42289180E+00  7.44229795E+00  7.45959491E+00  7.55918606E+00  7.66339331E+00
  7.66724440E+00  7.78686552E+00  7.87883671E+00  7.95334615E+00  8.06561174E+00
  8.29868033E+00  8.49059601E+00  8.64912790E+00  1.36196445E+01  1.46962150E+01
  1.50338370E+01  1.57596483E+01
Alpha MO coefficients                      R   N=       42849
  6.43669069E-05 -2.10397417E-05 -1.11266379E-03  1.29930360E-05 -5.13917397E-05
  4.20853206E-05  0.00000000E+00 -8.95691308E-05 -2.87901608E-04  0.00000000E+00
 -5.40613116E-07 -3.49959428E-04  0.00000000E+00  4.22300473E-05  0.00000000E+00
  0.00000000E+00 -2.51899249E-05  1.23278575E-05  2.28353567E-04  0.00000000E+00
  0.00000000E+00 -4.00752109E-05 -2.09801147E-04  3.06604070E-03 -9.64014950E-05
 -9.92519428E-05  3.54483337E-03  2.48122540E-03  1.02574799E-04 -5.32776557E-05
  0.00000000E+00 -7.28453400E-04  2.85615791E-04  0.00000000E+00 -1.97946352E-03
  1.11165694E-03  0.00000000E+00 -5.38209840E-04  3.96637093E-05  0.00000000E+00
  2.05602723E-05  0.00000000E+00  0.00000000E+00 -8.96211804E-06  4.42519074E-05
 -4.42937523E-04  0.00000000E+00  0.00000000E+00  4.27884264E-04 -6.61811943E-04
 -3.63839346E-04  0.00000000E+00  0.00000000E+00  5.44496962E-04 -7.42233441E-04
  0.00000000E+00  7.40038595E-05 -5.24203018E-05  0.00000000E+00  0.00000000E+00
 -2.75435725E-05  1.08043452E-04  0.00000000E+00  2.07570991E-04 -5.06311862E-05
  0.00000000E+00  0.00000000E+00 -1.69944157E-04  3.00242193E-04  9.76903090E-01
 -9.17483659E-03  4.34083786E-02  4.94507876E-04 -2.20848255E-03  4.45489575E-04
 -2.14958832E-03  0.00000000E+00 -3.13894908E-04  2.25598659E-03  0.00000000E+00
 -2.32327247E-03 -4.80507859E-04  0.00000000E+00 -2.24909067E-04  9.69348669E-05
  0.00000000E+00  6.66627529E-06  0.00000000E+00  0.00000000E+00 -4.97372716E-06
  3.83838583E-05  8.27722842E-04  0.00000000E+00  0.00000000E+00 -4.74671011E-04
 -1.74352954E-04 -1.38050320E-04  0.00000000E+00  0.00000000E+00 -5.49398055E-04
  3.55869143E-04  0.00000000E+00 -6.72309252E-06 -7.93152675E-05  0.00000000E+00
  0.00000000E+00 -8.91970760E-06  4.80473086E-05  0.00000000E+00  9.23404849E-05
  2.68354864E-07  0.00000000E+00  0.00000000E+00 -3.37837976E-04  3.80891887E-04
  1.05085261E-04  4.62712058E-04 -3.23540790E-04 -8.37633058E-04  3.49583818E-04
 -4.41464321E-05 -9.98380197E-05  0.00000000E+00  7.03939414E-04  1.11673774E-03
  0.00000000E+00 -7.66921628E-04 -6.58963507E-04  0.00000000E+00  1.94939699E-04
  2.11894087E-04  0.00000000E+00 -5.31316179E-05  0.00000000E+00  0.00000000E+00
  1.90842624E-05  9.43467846E-05 -4.15946980E-04  0.00000000E+00  0.00000000E+00
  4.58999848E-05  1.08294704E-03  2.73763069E-05  0.00000000E+00  0.00000000E+00
 -3.15549722E-04  2.80905336E-05  0.00000000E+00 -7.86602744E-05 -1.13583575E-04
  0.00000000E+00  0.00000000E+00 -9.59896524E-05  1.06126546E-04  0.00000000E+00
 -1.24415557E-04  4.72645985E-05  0.00000000E+00  0.00000000E+00  1.74398181E-05
  5.21445179E-04 -6.95058315E-04  4.64250853E-05 -6.99130404E-05  2.16853857E-04
 -1.75447228E-04 -2.88349556E-05 -4.14675997E-05  0.00000000E+00  1.68174468E-04
  2.54585766E-04  0.00000000E+00  5.29956054E-04  3.26706490E-04  0.00000000E+00
 -2.18463343E-04 -6.18051101E-05  0.00000000E+00 -1.30357464E-05  0.00000000E+00
  0.00000000E+00  3.31207799E-06  1.52660417E-05 -2.23015832E-06  0.00000000E+00
  0.00000000E+00 -1.64385361E-04  9.38525190E-06 -2.24656497E-05  0.00000000E+00
  0.00000000E+00 -1.70838895E-04 -4.20912492E-05  0.00000000E+00 -5.80785990E-06
 -9.01377947E-06  0.00000000E+00  0.00000000E+00 -2.12987213E-05  9.55657605E-06
  0.00000000E+00  3.99968500E-05  6.07935419E-05  0.00000000E+00  0.00000000E+00
  1.57511064E-04 -1.04028602E-04  3.98810740E-05  6.42885294E-05 -1.12214517E-04
 -2.99406152E-05  1.88906177E-05  1.11941016E-05  0.00000000E+00  2.39482646E-04
  5.97880536E-05  0.00000000E+00  1.25240877E-04  2.38570863E-05  0.00000000E+00
  1.31995748E-05  0.00000000E+00  0.00000000E+00 -1.21343625E-05  1.66290973E-05
  2.15471644E-05  0.00000000E+00  0.00000000E+00 -9.57007083E-05  6.45303685E-05
 -2.67354736E-04  2.63546222E-05 -1.55221721E-05 -5.53618261E-04  1.56769585E-04
  7.40798177E-06  1.36404286E-05  0.00000000E+00 -5.18138927E-07 -4.18955663E-05
  0.00000000E+00  1.83847864E-04  1.32905551E-04  0.00000000E+00 -4.55936946E-05
  4.94971087E-05  0.00000000E+00 -1.46526934E-06  0.00000000E+00  0.00000000E+00
 -8.36067083E-06 -1.17132512E-05  2.14522224E-05  0.00000000E+00  0.00000000E+00
  5.00807361E-05  1.08980974E-04  6.20424802E-05  0.00000000E+00  0.00000000E+00
 -2.91900553E-05 -7.78566904E-05  0.00000000E+00  7.73953850E-06  1.02453501E-05
  0.00000000E+00  0.00000000E+00 -1.04637517E-06 -2.49533393E-05  0.00000000E+00
 -1.39821628E-05 -3.60748879E-05  0.00000000E+00  0.00000000E+00 -2.45874648E-06
 -1.96748345E-05  7.23248073E-04  2.30042258E-05 -1.94892323E-05  3.01046744E-04
 -3.92457213E-04  1.65142361E-05  2.72671777E-05  0.00000000E+00 -6.63653957E-05
 -1.54049182E-04  0.00000000E+00  1.52894562E-04 -2.07499307E-04  0.00000000E+00
 -1.57057962E-04  1.42316161E-04  0.00000000E+00 -4.07178180E-06  0.00000000E+00
  0.00000000E+00 -2.95464917E-05 -9.85902169E-06 -5.16061620E-05  0.00000000E+00
  0.00000000E+00  8.00542774E-05  1.22445620E-04 -6.51928059E-05  0.00000000E+00
  0.00000000E+00  4.03811030E-05  2.81304078E-05  0.00000000E+00  2.98718469E-06
  3.23649872E-06  0.00000000E+00  0.00000000E+00 -7.97302789E-06 -2.41437093E-06
  0.00000000E+00  3.79938852E-06 -2.49639667E-05  0.00000000E+00  0.00000000E+00
  9.62055695E-05 -1.54893872E-04  2.36818752E-04  1.35598352E-03 -1.48655285E-04
 -6.92101752E-04  9.07309255E-04  6.28127891E-05 -6.99801798E-05  0.00000000E+00
  5.69438756E-04 -2.08579168E-03  0.00000000E+00  1.10921698E-04  4.96979857E-04
  0.00000000E+00  1.85987884E-04 -3.07921828E-04  0.00000000E+00 -1.27805583E-04
  0.00000000E+00  0.00000000E+00 -2.04280145E-04 -1.58224252E-04 -4.61069963E-04
  0.00000000E+00  0.00000000E+00 -6.05648992E-04 -9.21463262E-04 -4.24417484E-05
  0.00000000E+00  0.00000000E+00  5.83092341E-05  1.17041842E-04  0.00000000E+00
  8.24658855E-06  3.75910294E-05  0.00000000E+00  0.00000000E+00 -2.50887896E-05
 -3.67885082E-06  0.00000000E+00 -1.35416481E-04  1.58134502E-04  0.00000000E+00
  0.00000000E+00 -3.16244781E-04 -3.39777707E-05  9.76646438E-01 -9.88616045E-03
  4.35749453E-02  3.68509607E-03 -8.97690531E-04 -4.46125939E-04  2.13187897E-03