 Entering Gaussian System, Link 0=g16
 Input=HOONO_freq.gjf
 Output=HOONO_freq.log
 Initial command:
 /sw/contrib/gaussian/g16/B01/g16/l1.exe "/scr/Gau-25867.inp" -scrdir="/scr/"
 Entering Link 1 = /sw/contrib/gaussian/g16/B01/g16/l1.exe PID=     25868.
  
 Copyright (c) 1988-2017, Gaussian, Inc.  All Rights Reserved.
  
 This is part of the Gaussian(R) 16 program.  It is based on
 the Gaussian(R) 09 system (copyright 2009, Gaussian, Inc.),
 the Gaussian(R) 03 system (copyright 2003, Gaussian, Inc.),
 the Gaussian(R) 98 system (copyright 1998, Gaussian, Inc.),
 the Gaussian(R) 94 system (copyright 1995, Gaussian, Inc.),
 the Gaussian 92(TM) system (copyright 1992, Gaussian, Inc.),
 the Gaussian 90(TM) system (copyright 1990, Gaussian, Inc.),
 the Gaussian 88(TM) system (copyright 1988, Gaussian, Inc.),
 the Gaussian 86(TM) system (copyright 1986, Carnegie Mellon
 University), and the Gaussian 82(TM) system (copyright 1983,
 Carnegie Mellon University). Gaussian is a federally registered
 trademark of Gaussian, Inc.
  
 This software contains proprietary and confidential information,
 including trade secrets, belonging to Gaussian, Inc.
  
 This software is provided under written license and may be
 used, copied, transmitted, or stored only in accord with that
 written license.
  
 The following legend is applicable only to US Government
 contracts under FAR:
  
                    RESTRICTED RIGHTS LEGEND
  
 Use, reproduction and disclosure by the US Government is
 subject to restrictions as set forth in subparagraphs (a)
 and (c) of the Commercial Computer Software - Restricted
 Rights clause in FAR 52.227-19.
  
 Gaussian, Inc.
 340 Quinnipiac St., Bldg. 40, Wallingford CT 06492
  
  
 ---------------------------------------------------------------
 Warning -- This program may not be used in any manner that
 competes with the business of Gaussian, Inc. or will provide
 assistance to any competitor of Gaussian, Inc.  The licensee
 of this program is prohibited from giving any competitor of
 Gaussian, Inc. access to this program.  By using this program,
 the user acknowledges that Gaussian, Inc. is engaged in the
 business of creating and licensing software in the field of
 computational chemistry and represents and warrants to the
 licensee that it is not a competitor of Gaussian, Inc. and that
 it will not use this program in any manner prohibited above.
 ---------------------------------------------------------------
  

 Cite this work as:
 Gaussian 16, Revision B.01,
 M. J. Frisch, G. W. Trucks, H. B. Schlegel, G. E. Scuseria, 
 M. A. Robb, J. R. Cheeseman, G. Scalmani, V. Barone, 
 G. A. Petersson, H. Nakatsuji, X. Li, M. Caricato, A. V. Marenich, 
 J. Bloino, B. G. Janesko, R. Gomperts, B. Mennucci, H. P. Hratchian, 
 J. V. Ortiz, A. F. Izmaylov, J. L. Sonnenberg, D. Williams-Young, 
 F. Ding, F. Lipparini, F. Egidi, J. Goings, B. Peng, A. Petrone, 
 T. Henderson, D. Ranasinghe, V. G. Zakrzewski, J. Gao, N. Rega, 
 G. Zheng, W. Liang, M. Hada, M. Ehara, K. Toyota, R. Fukuda, 
 J. Hasegawa, M. Ishida, T. Nakajima, Y. Honda, O. Kitao, H. Nakai, 
 T. Vreven, K. Throssell, J. A. Montgomery, Jr., J. E. Peralta, 
 F. Ogliaro, M. J. Bearpark, J. J. Heyd, E. N. Brothers, K. N. Kudin, 
 V. N. Staroverov, T. A. Keith, R. Kobayashi, J. Normand, 
 K. Raghavachari, A. P. Rendell, J. C. Burant, S. S. Iyengar, 
 J. Tomasi, M. Cossi, J. M. Millam, M. Klene, C. Adamo, R. Cammi, 
 J. W. Ochterski, R. L. Martin, K. Morokuma, O. Farkas, 
 J. B. Foresman, and D. J. Fox, Gaussian, Inc., Wallingford CT, 2016.
 
 ******************************************
 Gaussian 16:  ES64L-G16RevB.01 20-Dec-2017
                11-Jun-2021 
 ******************************************
 %Chk=HOONO_freq.chk
 ----------------------------------------------------------------------
 #MP2/aug-cc-pvtz #Density=current #Opt=VeryTight #Frequency=Anharmonic
 ----------------------------------------------------------------------
 1/7=1,18=20,19=15,38=1,80=1/1,3;
 2/9=110,12=2,17=6,18=5,40=1/2;
 3/5=16,6=1,7=10,11=9,25=1,30=1,71=1/1,2,3;
 4//1;
 5/5=2,38=5/2;
 8/6=4,10=1/1;
 9/15=2,16=-3/6;
 10/5=1/2;
 6/7=2,8=2,9=2,10=2,22=-1/1;
 7/12=2/1,2,3,16;
 1/7=1,18=20,19=15,80=1/3(2);
 2/9=110/2;
 99//99;
 2/9=110/2;
 3/5=16,6=1,7=10,11=9,25=1,30=1,71=1/1,2,3;
 4/5=5,16=3,69=1/1;
 5/5=2,38=5/2;
 8/6=4,10=1/1;
 9/15=2,16=-3/6;
 10/5=1/2;
 7/12=2/1,2,3,16;
 1/7=1,18=20,19=15,80=1/3(-8);
 2/9=110/2;
 6/7=2,8=2,9=2,10=2,22=-1/1;
 99/9=10/99;
 ----------
 HOONO freq
 ----------
 Symbolic Z-matrix:
 Charge =  0 Multiplicity = 1
 H
 O                    1    ROH
 O                    2    ROO      1    AHOO
 N                    3    RON      2    AOON     1    THOON    0
 O                    4    RNO      3    AONO     2    TOONO    0
       Variables:
  ROH                   0.9823                   
  ROO                   1.4332                   
  RON                   1.3845                   
  RNO                   1.1917                   
  AHOO                 99.804                    
  AOON                112.983                    
  AONO                114.4                      
  THOON                 0.                       
  TOONO                 0.                       
 

 GradGradGradGradGradGradGradGradGradGradGradGradGradGradGradGradGradGrad
 Berny optimization.
 Initialization pass.
                           ----------------------------
                           !    Initial Parameters    !
                           ! (Angstroms and Degrees)  !
 --------------------------                            --------------------------
 ! Name  Definition              Value          Derivative Info.                !
 --------------------------------------------------------------------------------
 ! R1    R(1,2)                  0.9823         estimate D2E/DX2                !
 ! R2    R(2,3)                  1.4332         estimate D2E/DX2                !
 ! R3    R(3,4)                  1.3845         estimate D2E/DX2                !
 ! R4    R(4,5)                  1.1917         estimate D2E/DX2                !
 ! A1    A(1,2,3)               99.804          estimate D2E/DX2                !
 ! A2    A(2,3,4)              112.983          estimate D2E/DX2                !
 ! A3    A(3,4,5)              114.4            estimate D2E/DX2                !
 ! D1    D(1,2,3,4)              0.0            estimate D2E/DX2                !
 ! D2    D(2,3,4,5)              0.0            estimate D2E/DX2                !
 --------------------------------------------------------------------------------
 Trust Radius=3.00D-01 FncErr=1.00D-07 GrdErr=1.00D-07 EigMax=2.50D+02 EigMin=1.00D-04
 Number of steps in this run=     20 maximum allowed number of steps=    100.
 GradGradGradGradGradGradGradGradGradGradGradGradGradGradGradGradGradGrad

                          Input orientation:                          
 ---------------------------------------------------------------------
 Center     Atomic      Atomic             Coordinates (Angstroms)
 Number     Number       Type             X           Y           Z
 ---------------------------------------------------------------------
      1          1           0        0.000000    0.000000    0.000000
      2          8           0        0.000000    0.000000    0.982300
      3          8           0        1.412270    0.000000    1.226343
      4          7           0        2.162001    0.000000    0.062408
      5          8           0        1.516220    0.000000   -0.939148
 ---------------------------------------------------------------------
                    Distance matrix (angstroms):
                    1          2          3          4          5
     1  H    0.000000
     2  O    0.982300   0.000000
     3  O    1.870407   1.433200   0.000000
     4  N    2.162901   2.349563   1.384500   0.000000
     5  O    1.783514   2.447629   2.167985   1.191700   0.000000
 Stoichiometry    HNO3
 Framework group  CS[SG(HNO3)]
 Deg. of freedom     7
 Full point group                 CS      NOp   2
 Largest Abelian subgroup         CS      NOp   2
 Largest concise Abelian subgroup C1      NOp   1
                         Standard orientation:                         
 ---------------------------------------------------------------------
 Center     Atomic      Atomic             Coordinates (Angstroms)
 Number     Number       Type             X           Y           Z
 ---------------------------------------------------------------------
      1          1           0        1.099389   -0.594215    0.000000
      2          8           0        1.320875    0.362790    0.000000
      3          8           0        0.000000    0.918983    0.000000
      4          7           0       -0.992865   -0.045932    0.000000
      5          8           0       -0.589542   -1.167305    0.000000
 ---------------------------------------------------------------------
 Rotational constants (GHZ):          21.3089759           8.0809054           5.8590172
 Standard basis: Aug-CC-pVTZ (5D, 7F)
 There are   166 symmetry adapted cartesian basis functions of A'  symmetry.
 There are    79 symmetry adapted cartesian basis functions of A"  symmetry.
 There are   136 symmetry adapted basis functions of A'  symmetry.
 There are    71 symmetry adapted basis functions of A"  symmetry.
   207 basis functions,   315 primitive gaussians,   245 cartesian basis functions
    16 alpha electrons       16 beta electrons
       nuclear repulsion energy       122.6318008595 Hartrees.
 NAtoms=    5 NActive=    5 NUniq=    5 SFac= 1.00D+00 NAtFMM=   60 NAOKFM=F Big=F
 Integral buffers will be    131072 words long.
 Raffenetti 1 integral format.
 Two-electron integral symmetry is turned on.
 One-electron integrals computed using PRISM.
 NBasis=   207 RedAO= T EigKep=  1.31D-04  NBF=   136    71
 NBsUse=   207 1.00D-06 EigRej= -1.00D+00 NBFU=   136    71
 ExpMin= 2.53D-02 ExpMax= 1.53D+04 ExpMxC= 5.22D+02 IAcc=3 IRadAn=         5 AccDes= 0.00D+00
 Harris functional with IExCor=  205 and IRadAn=       5 diagonalized for initial guess.
 HarFok:  IExCor=  205 AccDes= 0.00D+00 IRadAn=         5 IDoV= 1 UseB2=F ITyADJ=14
 ICtDFT=  3500011 ScaDFX=  1.000000  1.000000  1.000000  1.000000
 FoFCou: FMM=F IPFlag=           0 FMFlag=      100000 FMFlg1=           0
         NFxFlg=           0 DoJE=T BraDBF=F KetDBF=T FulRan=T
         wScrn=  0.000000 ICntrl=       500 IOpCl=  0 I1Cent=   200000004 NGrid=           0
         NMat0=    1 NMatS0=      1 NMatT0=    0 NMatD0=    1 NMtDS0=    0 NMtDT0=    0
 Petite list used in FoFCou.
 Initial guess orbital symmetries:
       Occupied  (A') (A') (A') (A') (A') (A') (A') (A') (A') (A')
                 (A") (A') (A") (A') (A") (A')
       Virtual   (A") (A') (A') (A') (A') (A") (A') (A') (A') (A')
                 (A") (A') (A") (A') (A') (A") (A') (A') (A") (A')
                 (A') (A') (A') (A') (A") (A') (A') (A') (A") (A')
                 (A') (A") (A") (A') (A') (A") (A') (A") (A') (A")
                 (A') (A") (A') (A") (A') (A') (A') (A") (A') (A')
                 (A') (A") (A') (A") (A') (A") (A') (A') (A') (A")
                 (A') (A') (A") (A') (A') (A') (A") (A") (A') (A')
                 (A") (A') (A") (A") (A') (A') (A") (A') (A') (A')
                 (A") (A') (A') (A") (A') (A") (A') (A") (A') (A')
                 (A') (A") (A') (A") (A') (A') (A") (A') (A") (A')
                 (A") (A') (A') (A") (A") (A') (A') (A') (A") (A')
                 (A") (A') (A') (A') (A") (A') (A') (A') (A") (A')
                 (A") (A') (A') (A") (A") (A") (A") (A') (A') (A')
                 (A') (A') (A') (A") (A') (A") (A') (A") (A') (A')
                 (A") (A") (A') (A') (A') (A") (A') (A') (A') (A')
                 (A") (A') (A') (A") (A') (A") (A") (A') (A') (A")
                 (A') (A") (A") (A') (A") (A') (A') (A") (A") (A')
                 (A") (A") (A") (A') (A') (A") (A') (A') (A") (A')
                 (A') (A') (A') (A') (A') (A') (A') (A') (A') (A')
                 (A')
 The electronic state of the initial guess is 1-A'.
 Requested convergence on RMS density matrix=1.00D-08 within 128 cycles.
 Requested convergence on MAX density matrix=1.00D-06.
 Requested convergence on             energy=1.00D-06.
 No special actions if energy rises.
 SCF Done:  E(RHF) =  -279.506197391     A.U. after   14 cycles
            NFock= 14  Conv=0.44D-08     -V/T= 2.0022
 ExpMin= 2.53D-02 ExpMax= 1.53D+04 ExpMxC= 5.22D+02 IAcc=3 IRadAn=         5 AccDes= 0.00D+00
 HarFok:  IExCor=  205 AccDes= 0.00D+00 IRadAn=         5 IDoV=-2 UseB2=F ITyADJ=14
 ICtDFT= 12500011 ScaDFX=  1.000000  1.000000  1.000000  1.000000
 Range of M.O.s used for correlation:     5   207
 NBasis=   207 NAE=    16 NBE=    16 NFC=     4 NFV=     0
 NROrb=    203 NOA=    12 NOB=    12 NVA=   191 NVB=   191

 **** Warning!!: The largest alpha MO coefficient is  0.16277014D+02

 Fully direct method using O(ONN) memory.
 JobTyp=1 Pass  1:  I=   5 to  14 NPSUse=  1 ParTrn=F ParDer=F DoDerP=T.
 JobTyp=1 Pass  2:  I=  15 to  16 NPSUse=  1 ParTrn=F ParDer=F DoDerP=T.
 Spin components of T(2) and E(2):
     alpha-alpha T2 =       0.3481471087D-01 E2=     -0.1245362055D+00
     alpha-beta  T2 =       0.1847289155D+00 E2=     -0.6999099384D+00
     beta-beta   T2 =       0.3481471087D-01 E2=     -0.1245362055D+00
 ANorm=    0.1119981400D+01
 E2 =    -0.9489823494D+00 EUMP2 =    -0.28045517974055D+03
          IDoAtm=11111
          Differentiating once with respect to electric field.
                with respect to dipole field.
          Differentiating once with respect to nuclear coordinates.
          There are     1 degrees of freedom in the 1st order CPHF.  IDoFFX=0 NUNeed=     1.
 LinEq1:  Iter=  0 NonCon=     1 RMS=6.60D-03 Max=1.71D-01 NDo=     1
 AX will form     1 AO Fock derivatives at one time.
 LinEq1:  Iter=  1 NonCon=     1 RMS=2.00D-03 Max=3.05D-02 NDo=     1
 LinEq1:  Iter=  2 NonCon=     1 RMS=8.86D-04 Max=1.44D-02 NDo=     1
 LinEq1:  Iter=  3 NonCon=     1 RMS=3.77D-04 Max=7.90D-03 NDo=     1
 LinEq1:  Iter=  4 NonCon=     1 RMS=1.36D-04 Max=1.62D-03 NDo=     1
 LinEq1:  Iter=  5 NonCon=     1 RMS=7.57D-05 Max=1.38D-03 NDo=     1
 LinEq1:  Iter=  6 NonCon=     1 RMS=2.43D-05 Max=2.91D-04 NDo=     1
 LinEq1:  Iter=  7 NonCon=     1 RMS=8.22D-06 Max=1.09D-04 NDo=     1
 LinEq1:  Iter=  8 NonCon=     1 RMS=4.00D-06 Max=6.22D-05 NDo=     1
 LinEq1:  Iter=  9 NonCon=     1 RMS=1.03D-06 Max=1.15D-05 NDo=     1
 LinEq1:  Iter= 10 NonCon=     1 RMS=2.30D-07 Max=2.83D-06 NDo=     1
 LinEq1:  Iter= 11 NonCon=     1 RMS=4.98D-08 Max=8.04D-07 NDo=     1
 LinEq1:  Iter= 12 NonCon=     1 RMS=1.18D-08 Max=1.70D-07 NDo=     1
 LinEq1:  Iter= 13 NonCon=     1 RMS=2.07D-09 Max=2.63D-08 NDo=     1
 LinEq1:  Iter= 14 NonCon=     1 RMS=4.29D-10 Max=5.60D-09 NDo=     1
 LinEq1:  Iter= 15 NonCon=     0 RMS=8.80D-11 Max=8.95D-10 NDo=     1
 Linear equations converged to 1.000D-10 1.000D-09 after    15 iterations.
 End of Minotr F.D. properties file   721 does not exist.
 End of Minotr F.D. properties file   722 does not exist.
 End of Minotr F.D. properties file   788 does not exist.

 **********************************************************************

            Population analysis using the MP2 Density.

 **********************************************************************

 Orbital symmetries:
       Occupied  (A') (A') (A') (A') (A') (A') (A') (A') (A') (A')
                 (A") (A') (A") (A') (A') (A")
       Virtual   (A') (A") (A') (A') (A") (A') (A') (A') (A") (A')
                 (A") (A') (A') (A') (A") (A') (A') (A") (A') (A')
                 (A') (A') (A') (A') (A") (A') (A') (A") (A') (A')
                 (A') (A") (A") (A') (A') (A') (A") (A') (A") (A')
                 (A") (A") (A') (A') (A") (A') (A') (A") (A') (A')
                 (A') (A") (A') (A') (A") (A') (A") (A') (A") (A')
                 (A') (A') (A") (A') (A') (A") (A') (A") (A') (A')
                 (A") (A') (A") (A") (A') (A') (A") (A') (A') (A')
                 (A") (A') (A') (A") (A') (A") (A") (A') (A') (A')
                 (A') (A') (A") (A") (A') (A') (A") (A") (A') (A")
                 (A') (A') (A") (A') (A") (A') (A') (A') (A") (A")
                 (A') (A') (A') (A') (A") (A') (A') (A') (A") (A')
                 (A") (A') (A") (A') (A") (A") (A') (A") (A') (A')
                 (A') (A') (A") (A') (A') (A") (A") (A') (A') (A')
                 (A") (A") (A') (A') (A') (A") (A') (A') (A') (A")
                 (A') (A') (A') (A") (A") (A') (A") (A') (A') (A")
                 (A') (A") (A') (A") (A") (A') (A") (A') (A") (A')
                 (A") (A") (A") (A') (A') (A") (A') (A') (A") (A')
                 (A') (A') (A') (A') (A') (A') (A') (A') (A') (A')
                 (A')
 The electronic state is 1-A'.
 Alpha  occ. eigenvalues --  -20.71870 -20.68869 -20.66835 -15.82639  -1.64509
 Alpha  occ. eigenvalues --   -1.50442  -1.29373  -0.95996  -0.83490  -0.75916
 Alpha  occ. eigenvalues --   -0.73929  -0.63906  -0.61913  -0.61773  -0.50434
 Alpha  occ. eigenvalues --   -0.49837
 Alpha virt. eigenvalues --    0.03519   0.06038   0.09503   0.10025   0.11951
 Alpha virt. eigenvalues --    0.12243   0.14929   0.15205   0.17753   0.18004
 Alpha virt. eigenvalues --    0.18974   0.21089   0.21683   0.23972   0.24634
 Alpha virt. eigenvalues --    0.26883   0.31300   0.31720   0.33763   0.34278
 Alpha virt. eigenvalues --    0.34646   0.39240   0.44976   0.49006   0.50526
 Alpha virt. eigenvalues --    0.51823   0.54438   0.56061   0.59898   0.62101
 Alpha virt. eigenvalues --    0.63898   0.68962   0.71682   0.72426   0.74247
 Alpha virt. eigenvalues --    0.76397   0.76645   0.79620   0.80647   0.83968
 Alpha virt. eigenvalues --    0.84328   0.85238   0.88488   0.90743   0.92884
 Alpha virt. eigenvalues --    0.94881   0.95455   1.01857   1.03338   1.06452
 Alpha virt. eigenvalues --    1.06715   1.09549   1.14490   1.15577   1.16986
 Alpha virt. eigenvalues --    1.22174   1.22807   1.24667   1.35577   1.35703
 Alpha virt. eigenvalues --    1.37074   1.46871   1.48634   1.50393   1.54425
 Alpha virt. eigenvalues --    1.59700   1.59713   1.60410   1.62823   1.69503
 Alpha virt. eigenvalues --    1.74358   1.80121   1.82861   1.88850   1.90143
 Alpha virt. eigenvalues --    1.92862   1.97798   1.99036   2.05136   2.12355
 Alpha virt. eigenvalues --    2.13218   2.16610   2.18926   2.24280   2.25715
 Alpha virt. eigenvalues --    2.29506   2.35315   2.36653   2.38817   2.40484
 Alpha virt. eigenvalues --    2.43087   2.46802   2.47913   2.53012   2.53923
 Alpha virt. eigenvalues --    2.54781   2.55954   2.61633   2.62841   2.67077
 Alpha virt. eigenvalues --    2.67352   2.75093   2.80484   2.81384   2.84431
 Alpha virt. eigenvalues --    2.91601   2.98379   3.04607   3.04985   3.11552
 Alpha virt. eigenvalues --    3.11855   3.17580   3.21403   3.30721   3.33007
 Alpha virt. eigenvalues --    3.35740   3.47640   3.67696   3.86828   3.93739
 Alpha virt. eigenvalues --    4.18757   4.22301   4.22386   4.27188   4.36844
 Alpha virt. eigenvalues --    4.49288   4.52871   4.55688   4.60367   4.69283
 Alpha virt. eigenvalues --    4.81329   4.89585   4.91346   4.94286   4.99621
 Alpha virt. eigenvalues --    5.00454   5.10680   5.13580   5.18202   5.25614
 Alpha virt. eigenvalues --    5.26241   5.31794   5.34965   5.36134   5.54430
 Alpha virt. eigenvalues --    5.64819   5.70657   5.88157   5.99791   6.27608
 Alpha virt. eigenvalues --    6.29465   6.35253   6.37822   6.60306   6.66002
 Alpha virt. eigenvalues --    6.66178   6.69031   6.72630   6.79729   6.80519
 Alpha virt. eigenvalues --    6.85153   6.96578   7.02510   7.06297   7.07705
 Alpha virt. eigenvalues --    7.13362   7.17149   7.17521   7.20419   7.24473
 Alpha virt. eigenvalues --    7.24760   7.27493   7.34862   7.39406   7.42908
 Alpha virt. eigenvalues --    7.44202   7.46453   7.56053   7.65811   7.66746
 Alpha virt. eigenvalues --    7.79355   7.88076   7.94690   8.07037   8.30498
 Alpha virt. eigenvalues --    8.49738   8.64511  13.58561  14.77447  15.13705
 Alpha virt. eigenvalues --   15.84460
          Condensed to atoms (all electrons):
               1          2          3          4          5
     1  H    0.584100   0.122415   0.023283   0.000689  -0.004674
     2  O    0.122415   8.380752  -0.221406   0.000038  -0.008683
     3  O    0.023283  -0.221406   8.368504  -0.169845  -0.033515
     4  N    0.000689   0.000038  -0.169845   7.133279  -0.121702
     5  O   -0.004674  -0.008683  -0.033515  -0.121702   8.360165
 Mulliken charges:
               1
     1  H    0.274187
     2  O   -0.273116
     3  O    0.032979
     4  N    0.157540
     5  O   -0.191591
 Sum of Mulliken charges =  -0.00000
 Mulliken charges with hydrogens summed into heavy atoms:
               1
     2  O    0.001072
     3  O    0.032979
     4  N    0.157540
     5  O   -0.191591
 Electronic spatial extent (au):  <R**2>=            207.6158
 Charge=             -0.0000 electrons
 Dipole moment (field-independent basis, Debye):
    X=              0.0026    Y=             -1.1205    Z=              0.0000  Tot=              1.1205
 Quadrupole moment (field-independent basis, Debye-Ang):
   XX=            -23.4027   YY=            -22.9323   ZZ=            -21.9340
   XY=             -1.9307   XZ=              0.0000   YZ=              0.0000
 Traceless Quadrupole moment (field-independent basis, Debye-Ang):
   XX=             -0.6464   YY=             -0.1759   ZZ=              0.8223
   XY=             -1.9307   XZ=              0.0000   YZ=              0.0000
 Octapole moment (field-independent basis, Debye-Ang**2):
  XXX=              2.4175  YYY=              0.1929  ZZZ=              0.0000  XYY=              2.3217
  XXY=             -2.7914  XXZ=              0.0000  XZZ=             -0.6099  YZZ=             -0.7367
  YYZ=              0.0000  XYZ=              0.0000
 Hexadecapole moment (field-independent basis, Debye-Ang**3):
 XXXX=           -127.6406 YYYY=            -94.6764 ZZZZ=            -18.0449 XXXY=            -21.5192
 XXXZ=              0.0000 YYYX=            -19.8004 YYYZ=              0.0000 ZZZX=              0.0000
 ZZZY=              0.0000 XXYY=            -35.6958 XXZZ=            -24.4279 YYZZ=            -18.5651
 XXYZ=              0.0000 YYXZ=              0.0000 ZZXY=             -5.9263
 N-N= 1.226318008595D+02 E-N=-9.068214561742D+02  KE= 2.802076910663D+02
 Symmetry A'   KE= 2.663577122330D+02
 Symmetry A"   KE= 1.384997883328D+01
 Calling FoFJK, ICntrl=  10002127 FMM=F ISym2X=1 I1Cent= 0 IOpClX= 0 NMat=1 NMatS=1 NMatT=0.
 ***** Axes restored to original set *****
 -------------------------------------------------------------------
 Center     Atomic                   Forces (Hartrees/Bohr)
 Number     Number              X              Y              Z
 -------------------------------------------------------------------
      1        1          -0.001858183   -0.000000000   -0.002881805
      2        8           0.003856268   -0.000000000    0.002216311
      3        8          -0.001717132   -0.000000000   -0.000443431
      4        7           0.001660337   -0.000000000    0.003954548
      5        8          -0.001941290   -0.000000000   -0.002845622
 -------------------------------------------------------------------
 Cartesian Forces:  Max     0.003954548 RMS     0.002080817

 GradGradGradGradGradGradGradGradGradGradGradGradGradGradGradGradGradGrad
 Berny optimization.
 FormGI is forming the generalized inverse of G from B-inverse, IUseBI=4.
 Internal  Forces:  Max     0.003449297 RMS     0.002035391
 Search for a local minimum.
 Step number   1 out of a maximum of   20
 All quantities printed in internal units (Hartrees-Bohrs-Radians)
 Mixed Optimization -- RFO/linear search
 Second derivative matrix not updated -- first step.
 The second derivative matrix:
                          R1        R2        R3        R4        A1
           R1           0.50941
           R2           0.00000   0.40533
           R3           0.00000   0.00000   0.48289
           R4           0.00000   0.00000   0.00000   1.09107
           A1           0.00000   0.00000   0.00000   0.00000   0.16000
           A2           0.00000   0.00000   0.00000   0.00000   0.00000
           A3           0.00000   0.00000   0.00000   0.00000   0.00000
           D1           0.00000   0.00000   0.00000   0.00000   0.00000
           D2           0.00000   0.00000   0.00000   0.00000   0.00000
                          A2        A3        D1        D2
           A2           0.25000
           A3           0.00000   0.25000
           D1           0.00000   0.00000   0.00856
           D2           0.00000   0.00000   0.00000   0.01500
 ITU=  0
     Eigenvalues ---    0.00856   0.01500   0.16000   0.25000   0.25000
     Eigenvalues ---    0.40533   0.48289   0.50941   1.09107
 RFO step:  Lambda=-1.14821943D-04 EMin= 8.55632611D-03
 Linear search not attempted -- first point.
 Iteration  1 RMS(Cart)=  0.01224127 RMS(Int)=  0.00015366
 Iteration  2 RMS(Cart)=  0.00013269 RMS(Int)=  0.00000001
 Iteration  3 RMS(Cart)=  0.00000001 RMS(Int)=  0.00000000
 ClnCor:  largest displacement from symmetrization is 6.57D-10 for atom     3.
 Variable       Old X    -DE/DX   Delta X   Delta X   Delta X     New X
                                 (Linear)    (Quad)   (Total)
    R1        1.85628   0.00288   0.00000   0.00566   0.00566   1.86193
    R2        2.70836  -0.00186   0.00000  -0.00458  -0.00458   2.70378
    R3        2.61633  -0.00108   0.00000  -0.00225  -0.00225   2.61408
    R4        2.25199   0.00344   0.00000   0.00316   0.00316   2.25514
    A1        1.74191   0.00345   0.00000   0.02154   0.02154   1.76345
    A2        1.97193   0.00075   0.00000   0.00301   0.00301   1.97493
    A3        1.99666  -0.00020   0.00000  -0.00081  -0.00081   1.99585
    D1        0.00000  -0.00000   0.00000  -0.00000   0.00000   0.00000
    D2        0.00000  -0.00000   0.00000  -0.00000   0.00000   0.00000
         Item               Value     Threshold  Converged?
 Maximum Force            0.003449     0.000002     NO 
 RMS     Force            0.002035     0.000001     NO 
 Maximum Displacement     0.032382     0.000006     NO 
 RMS     Displacement     0.012288     0.000004     NO 
 Predicted change in Energy=-5.744209D-05
 GradGradGradGradGradGradGradGradGradGradGradGradGradGradGradGradGradGrad

                          Input orientation:                          
 ---------------------------------------------------------------------
 Center     Atomic      Atomic             Coordinates (Angstroms)
 Number     Number       Type             X           Y           Z
 ---------------------------------------------------------------------
      1          1           0       -0.017136    0.000000   -0.001976
      2          8           0        0.004779    0.000000    0.983073
      3          8           0        1.414832    0.000000    1.225716
      4          7           0        2.166598    0.000000    0.064509
      5          8           0        1.521416    0.000000   -0.939419
 ---------------------------------------------------------------------
                    Distance matrix (angstroms):
                    1          2          3          4          5
     1  H    0.000000
     2  O    0.985293   0.000000
     3  O    1.886202   1.430778   0.000000
     4  N    2.184745   2.348877   1.383312   0.000000
     5  O    1.801649   2.448707   2.167757   1.193370   0.000000
 Stoichiometry    HNO3
 Framework group  CS[SG(HNO3)]
 Deg. of freedom     7
 Full point group                 CS      NOp   2
 Largest Abelian subgroup         CS      NOp   2
 Largest concise Abelian subgroup C1      NOp   1
                         Standard orientation:                         
 ---------------------------------------------------------------------
 Center     Atomic      Atomic             Coordinates (Angstroms)
 Number     Number       Type             X           Y           Z
 ---------------------------------------------------------------------
      1          1           0        1.119585   -0.600209   -0.000000
      2          8           0        1.319509    0.364588   -0.000000
      3          8           0        0.000000    0.917780    0.000000
      4          7           0       -0.993403   -0.044874    0.000000
      5          8           0       -0.590230   -1.168077    0.000000
 ---------------------------------------------------------------------
 Rotational constants (GHZ):          21.3075241           8.0766124           5.8566504
 Standard basis: Aug-CC-pVTZ (5D, 7F)
 There are   166 symmetry adapted cartesian basis functions of A'  symmetry.
 There are    79 symmetry adapted cartesian basis functions of A"  symmetry.
 There are   136 symmetry adapted basis functions of A'  symmetry.
 There are    71 symmetry adapted basis functions of A"  symmetry.
   207 basis functions,   315 primitive gaussians,   245 cartesian basis functions
    16 alpha electrons       16 beta electrons
       nuclear repulsion energy       122.5815611216 Hartrees.
 NAtoms=    5 NActive=    5 NUniq=    5 SFac= 1.00D+00 NAtFMM=   60 NAOKFM=F Big=F
 Integral buffers will be    131072 words long.
 Raffenetti 1 integral format.
 Two-electron integral symmetry is turned on.
 One-electron integrals computed using PRISM.
 NBasis=   207 RedAO= T EigKep=  1.31D-04  NBF=   136    71
 NBsUse=   207 1.00D-06 EigRej= -1.00D+00 NBFU=   136    71
 Initial guess from the checkpoint file:  "HOONO_freq.chk"
 B after Tr=     0.000000   -0.000000   -0.000000
         Rot=    1.000000    0.000000   -0.000000   -0.000206 Ang=  -0.02 deg.
 Initial guess orbital symmetries:
       Occupied  (A') (A') (A') (A') (A') (A') (A') (A') (A') (A')
                 (A") (A') (A") (A') (A') (A")
       Virtual   (A') (A") (A') (A') (A") (A') (A') (A') (A") (A')
                 (A") (A') (A') (A') (A") (A') (A') (A") (A') (A')
                 (A') (A') (A') (A') (A") (A') (A') (A") (A') (A')
                 (A') (A") (A") (A') (A') (A') (A") (A') (A") (A')
                 (A") (A") (A') (A') (A") (A') (A') (A") (A') (A')
                 (A') (A") (A') (A') (A") (A') (A") (A') (A") (A')
                 (A') (A') (A") (A') (A') (A") (A') (A") (A') (A')
                 (A") (A') (A") (A") (A') (A') (A") (A') (A') (A')
                 (A") (A') (A') (A") (A') (A") (A") (A') (A') (A')
                 (A') (A') (A") (A") (A') (A') (A") (A") (A') (A")
                 (A') (A') (A") (A') (A") (A') (A') (A') (A") (A")
                 (A') (A') (A') (A') (A") (A') (A') (A') (A") (A')
                 (A") (A') (A") (A') (A") (A") (A') (A") (A') (A')
                 (A') (A') (A") (A') (A') (A") (A") (A') (A') (A')
                 (A") (A") (A') (A') (A') (A") (A') (A') (A') (A")
                 (A') (A') (A') (A") (A") (A') (A") (A') (A') (A")
                 (A') (A") (A') (A") (A") (A') (A") (A') (A") (A')
                 (A") (A") (A") (A') (A') (A") (A') (A') (A") (A')
                 (A') (A') (A') (A') (A') (A') (A') (A') (A') (A')
                 (A')
 ExpMin= 2.53D-02 ExpMax= 1.53D+04 ExpMxC= 5.22D+02 IAcc=3 IRadAn=         5 AccDes= 0.00D+00
 Harris functional with IExCor=  205 and IRadAn=       5 diagonalized for initial guess.
 HarFok:  IExCor=  205 AccDes= 0.00D+00 IRadAn=         5 IDoV= 1 UseB2=F ITyADJ=14
 ICtDFT=  3500011 ScaDFX=  1.000000  1.000000  1.000000  1.000000
 FoFCou: FMM=F IPFlag=           0 FMFlag=      100000 FMFlg1=           0
         NFxFlg=           0 DoJE=T BraDBF=F KetDBF=T FulRan=T
         wScrn=  0.000000 ICntrl=       500 IOpCl=  0 I1Cent=   200000004 NGrid=           0
         NMat0=    1 NMatS0=      1 NMatT0=    0 NMatD0=    1 NMtDS0=    0 NMtDT0=    0
 Petite list used in FoFCou.
 Requested convergence on RMS density matrix=1.00D-08 within 128 cycles.
 Requested convergence on MAX density matrix=1.00D-06.
 Requested convergence on             energy=1.00D-06.
 No special actions if energy rises.
 SCF Done:  E(RHF) =  -279.506312767     A.U. after   10 cycles
            NFock= 10  Conv=0.58D-08     -V/T= 2.0023
 ExpMin= 2.53D-02 ExpMax= 1.53D+04 ExpMxC= 5.22D+02 IAcc=3 IRadAn=         5 AccDes= 0.00D+00
 HarFok:  IExCor=  205 AccDes= 0.00D+00 IRadAn=         5 IDoV=-2 UseB2=F ITyADJ=14
 ICtDFT= 12500011 ScaDFX=  1.000000  1.000000  1.000000  1.000000
 Range of M.O.s used for correlation:     5   207
 NBasis=   207 NAE=    16 NBE=    16 NFC=     4 NFV=     0
 NROrb=    203 NOA=    12 NOB=    12 NVA=   191 NVB=   191

 **** Warning!!: The largest alpha MO coefficient is  0.16506529D+02

 Fully direct method using O(ONN) memory.
 JobTyp=1 Pass  1:  I=   5 to  14 NPSUse=  1 ParTrn=F ParDer=F DoDerP=T.
 JobTyp=1 Pass  2:  I=  15 to  16 NPSUse=  1 ParTrn=F ParDer=F DoDerP=T.
 Spin components of T(2) and E(2):
     alpha-alpha T2 =       0.3481559181D-01 E2=     -0.1245206472D+00
     alpha-beta  T2 =       0.1847421003D+00 E2=     -0.6998668276D+00
     beta-beta   T2 =       0.3481559181D-01 E2=     -0.1245206472D+00
 ANorm=    0.1119988073D+01
 E2 =    -0.9489081220D+00 EUMP2 =    -0.28045522088868D+03
          IDoAtm=11111
          Differentiating once with respect to electric field.
                with respect to dipole field.
          Differentiating once with respect to nuclear coordinates.
          There are     1 degrees of freedom in the 1st order CPHF.  IDoFFX=0 NUNeed=     1.
 LinEq1:  Iter=  0 NonCon=     1 RMS=6.59D-03 Max=1.70D-01 NDo=     1
 AX will form     1 AO Fock derivatives at one time.
 LinEq1:  Iter=  1 NonCon=     1 RMS=2.00D-03 Max=3.07D-02 NDo=     1
 LinEq1:  Iter=  2 NonCon=     1 RMS=8.86D-04 Max=1.44D-02 NDo=     1
 LinEq1:  Iter=  3 NonCon=     1 RMS=3.79D-04 Max=8.07D-03 NDo=     1
 LinEq1:  Iter=  4 NonCon=     1 RMS=1.37D-04 Max=1.64D-03 NDo=     1
 LinEq1:  Iter=  5 NonCon=     1 RMS=7.62D-05 Max=1.38D-03 NDo=     1
 LinEq1:  Iter=  6 NonCon=     1 RMS=2.44D-05 Max=2.84D-04 NDo=     1
 LinEq1:  Iter=  7 NonCon=     1 RMS=8.19D-06 Max=1.09D-04 NDo=     1
 LinEq1:  Iter=  8 NonCon=     1 RMS=3.99D-06 Max=6.19D-05 NDo=     1
 LinEq1:  Iter=  9 NonCon=     1 RMS=1.04D-06 Max=1.16D-05 NDo=     1
 LinEq1:  Iter= 10 NonCon=     1 RMS=2.32D-07 Max=2.83D-06 NDo=     1
 LinEq1:  Iter= 11 NonCon=     1 RMS=5.00D-08 Max=7.90D-07 NDo=     1
 LinEq1:  Iter= 12 NonCon=     1 RMS=1.18D-08 Max=1.66D-07 NDo=     1
 LinEq1:  Iter= 13 NonCon=     1 RMS=2.07D-09 Max=2.41D-08 NDo=     1
 LinEq1:  Iter= 14 NonCon=     1 RMS=4.29D-10 Max=5.68D-09 NDo=     1
 LinEq1:  Iter= 15 NonCon=     0 RMS=8.80D-11 Max=8.59D-10 NDo=     1
 Linear equations converged to 1.000D-10 1.000D-09 after    15 iterations.
 End of Minotr F.D. properties file   721 does not exist.
 End of Minotr F.D. properties file   722 does not exist.
 End of Minotr F.D. properties file   788 does not exist.
 Calling FoFJK, ICntrl=  10002127 FMM=F ISym2X=1 I1Cent= 0 IOpClX= 0 NMat=1 NMatS=1 NMatT=0.
 ***** Axes restored to original set *****
 -------------------------------------------------------------------
 Center     Atomic                   Forces (Hartrees/Bohr)
 Number     Number              X              Y              Z
 -------------------------------------------------------------------
      1        1           0.001101560    0.000000000    0.000415523
      2        8           0.000960603    0.000000000    0.000563583
      3        8          -0.001507534   -0.000000000   -0.001481913
      4        7           0.000072303    0.000000000    0.001587207
      5        8          -0.000626932   -0.000000000   -0.001084400
 -------------------------------------------------------------------
 Cartesian Forces:  Max     0.001587207 RMS     0.000863660

 GradGradGradGradGradGradGradGradGradGradGradGradGradGradGradGradGradGrad
 Berny optimization.
 Using GEDIIS/GDIIS optimizer.
 FormGI is forming the generalized inverse of G from B-inverse, IUseBI=4.
 Internal  Forces:  Max     0.002198332 RMS     0.001125661
 Search for a local minimum.
 Step number   2 out of a maximum of   20
 All quantities printed in internal units (Hartrees-Bohrs-Radians)
 Mixed Optimization -- RFO/linear search
 Update second derivatives using D2CorX and points    1    2
 DE= -4.11D-05 DEPred=-5.74D-05 R= 7.16D-01
 TightC=F SS=  1.41D+00  RLast= 2.33D-02 DXNew= 5.0454D-01 6.9823D-02
 Trust test= 7.16D-01 RLast= 2.33D-02 DXMaxT set to 3.00D-01
 The second derivative matrix:
                          R1        R2        R3        R4        A1
           R1           0.51229
           R2           0.05433   0.37614
           R3           0.01905  -0.01837   0.47353
           R4          -0.03680   0.06078   0.02713   1.02052
           A1           0.03761   0.06853   0.01907  -0.02148   0.26138
           A2           0.00653   0.01477   0.00434  -0.00578   0.01935
           A3          -0.00251  -0.00404  -0.00108   0.00105  -0.00644
           D1          -0.00000  -0.00000   0.00000  -0.00000  -0.00000
           D2          -0.00000  -0.00000   0.00000  -0.00000  -0.00000
                          A2        A3        D1        D2
           A2           0.25366
           A3          -0.00124   0.25041
           D1          -0.00000   0.00000   0.00856
           D2          -0.00000   0.00000   0.00000   0.01500
 ITU=  1  0
 Use linear search instead of GDIIS.
     Eigenvalues ---    0.00856   0.01500   0.22008   0.24996   0.25401
     Eigenvalues ---    0.37133   0.47535   0.54757   1.02963
 RFO step:  Lambda=-1.98431230D-05 EMin= 8.55632611D-03
 Quartic linear search produced a step of -0.21956.
 Iteration  1 RMS(Cart)=  0.00545772 RMS(Int)=  0.00001375
 Iteration  2 RMS(Cart)=  0.00001135 RMS(Int)=  0.00000000
 Iteration  3 RMS(Cart)=  0.00000000 RMS(Int)=  0.00000000
 ClnCor:  largest displacement from symmetrization is 6.98D-10 for atom     3.
 Variable       Old X    -DE/DX   Delta X   Delta X   Delta X     New X
                                 (Linear)    (Quad)   (Total)
    R1        1.86193  -0.00044  -0.00124   0.00154   0.00030   1.86223
    R2        2.70378  -0.00220   0.00100  -0.00602  -0.00502   2.69876
    R3        2.61408  -0.00072   0.00049  -0.00205  -0.00155   2.61253
    R4        2.25514   0.00125  -0.00069   0.00213   0.00144   2.25658
    A1        1.76345  -0.00203  -0.00473  -0.00154  -0.00627   1.75718
    A2        1.97493  -0.00037  -0.00066   0.00002  -0.00064   1.97429
    A3        1.99585   0.00013   0.00018   0.00010   0.00028   1.99613
    D1       -0.00000   0.00000   0.00000   0.00000   0.00000   0.00000
    D2        0.00000  -0.00000   0.00000   0.00000   0.00000   0.00000
         Item               Value     Threshold  Converged?
 Maximum Force            0.002198     0.000002     NO 
 RMS     Force            0.001126     0.000001     NO 
 Maximum Displacement     0.013694     0.000006     NO 
 RMS     Displacement     0.005458     0.000004     NO 
 Predicted change in Energy=-1.339324D-05
 GradGradGradGradGradGradGradGradGradGradGradGradGradGradGradGradGradGrad

                          Input orientation:                          
 ---------------------------------------------------------------------
 Center     Atomic      Atomic             Coordinates (Angstroms)
 Number     Number       Type             X           Y           Z
 ---------------------------------------------------------------------
      1          1           0       -0.009889   -0.000000   -0.002326
      2          8           0        0.005470   -0.000000    0.983005
      3          8           0        1.412813    0.000000    1.225741
      4          7           0        2.163834    0.000000    0.065033
      5          8           0        1.518262    0.000000   -0.939550
 ---------------------------------------------------------------------
                    Distance matrix (angstroms):
                    1          2          3          4          5
     1  H    0.000000
     2  O    0.985451   0.000000
     3  O    1.879422   1.428123   0.000000
     4  N    2.174767   2.345466   1.382489   0.000000
     5  O    1.792661   2.446376   2.167857   1.194131   0.000000
 Stoichiometry    HNO3
 Framework group  CS[SG(HNO3)]
 Deg. of freedom     7
 Full point group                 CS      NOp   2
 Largest Abelian subgroup         CS      NOp   2
 Largest concise Abelian subgroup C1      NOp   1
                         Standard orientation:                         
 ---------------------------------------------------------------------
 Center     Atomic      Atomic             Coordinates (Angstroms)
 Number     Number       Type             X           Y           Z
 ---------------------------------------------------------------------
      1          1           0        1.111296   -0.598039    0.000000
      2          8           0        1.317148    0.365672    0.000000
      3          8           0        0.000000    0.917629    0.000000
      4          7           0       -0.992042   -0.045247    0.000000
      5          8           0       -0.588024   -1.168955    0.000000
 ---------------------------------------------------------------------
 Rotational constants (GHZ):          21.3392620           8.0925379           5.8674219
 Standard basis: Aug-CC-pVTZ (5D, 7F)
 There are   166 symmetry adapted cartesian basis functions of A'  symmetry.
 There are    79 symmetry adapted cartesian basis functions of A"  symmetry.
 There are   136 symmetry adapted basis functions of A'  symmetry.
 There are    71 symmetry adapted basis functions of A"  symmetry.
   207 basis functions,   315 primitive gaussians,   245 cartesian basis functions
    16 alpha electrons       16 beta electrons
       nuclear repulsion energy       122.6802534708 Hartrees.
 NAtoms=    5 NActive=    5 NUniq=    5 SFac= 1.00D+00 NAtFMM=   60 NAOKFM=F Big=F
 Integral buffers will be    131072 words long.
 Raffenetti 1 integral format.
 Two-electron integral symmetry is turned on.
 One-electron integrals computed using PRISM.
 NBasis=   207 RedAO= T EigKep=  1.31D-04  NBF=   136    71
 NBsUse=   207 1.00D-06 EigRej= -1.00D+00 NBFU=   136    71
 Initial guess from the checkpoint file:  "HOONO_freq.chk"
 B after Tr=    -0.000000   -0.000000    0.000000
         Rot=    1.000000   -0.000000   -0.000000   -0.000496 Ang=  -0.06 deg.
 Initial guess orbital symmetries:
       Occupied  (A') (A') (A') (A') (A') (A') (A') (A') (A') (A')
                 (A") (A') (A") (A') (A') (A")
       Virtual   (A') (A") (A') (A') (A") (A') (A') (A') (A") (A')
                 (A") (A') (A') (A') (A") (A') (A') (A") (A') (A')
                 (A') (A') (A') (A') (A") (A') (A') (A") (A') (A')
                 (A') (A") (A") (A') (A') (A') (A") (A') (A") (A')
                 (A") (A") (A') (A') (A") (A') (A') (A") (A') (A')
                 (A') (A") (A') (A') (A") (A') (A") (A') (A") (A')
                 (A') (A') (A") (A') (A') (A') (A") (A") (A') (A')
                 (A") (A') (A") (A") (A') (A') (A") (A') (A') (A')
                 (A") (A') (A') (A") (A') (A") (A") (A') (A') (A')
                 (A') (A') (A") (A") (A') (A') (A") (A") (A') (A")
                 (A') (A') (A") (A') (A") (A') (A') (A') (A") (A")
                 (A') (A') (A') (A') (A") (A') (A') (A') (A") (A')
                 (A") (A") (A') (A') (A") (A") (A') (A") (A') (A')
                 (A') (A') (A") (A') (A') (A") (A") (A') (A') (A')
                 (A") (A") (A') (A') (A') (A") (A') (A') (A') (A")
                 (A') (A') (A') (A") (A") (A') (A") (A') (A') (A")
                 (A') (A") (A') (A") (A") (A') (A') (A") (A") (A')
                 (A") (A") (A") (A') (A') (A") (A') (A') (A") (A')
                 (A') (A') (A') (A') (A') (A') (A') (A') (A') (A')
                 (A')
 Requested convergence on RMS density matrix=1.00D-08 within 128 cycles.
 Requested convergence on MAX density matrix=1.00D-06.
 Requested convergence on             energy=1.00D-06.
 No special actions if energy rises.
 SCF Done:  E(RHF) =  -279.506340290     A.U. after   10 cycles
            NFock= 10  Conv=0.66D-08     -V/T= 2.0022
 ExpMin= 2.53D-02 ExpMax= 1.53D+04 ExpMxC= 5.22D+02 IAcc=3 IRadAn=         5 AccDes= 0.00D+00
 HarFok:  IExCor=  205 AccDes= 0.00D+00 IRadAn=         5 IDoV=-2 UseB2=F ITyADJ=14
 ICtDFT= 12500011 ScaDFX=  1.000000  1.000000  1.000000  1.000000
 Range of M.O.s used for correlation:     5   207
 NBasis=   207 NAE=    16 NBE=    16 NFC=     4 NFV=     0
 NROrb=    203 NOA=    12 NOB=    12 NVA=   191 NVB=   191

 **** Warning!!: The largest alpha MO coefficient is  0.16470518D+02

 Fully direct method using O(ONN) memory.
 JobTyp=1 Pass  1:  I=   5 to  14 NPSUse=  1 ParTrn=F ParDer=F DoDerP=T.
 JobTyp=1 Pass  2:  I=  15 to  16 NPSUse=  1 ParTrn=F ParDer=F DoDerP=T.
 Spin components of T(2) and E(2):
     alpha-alpha T2 =       0.3481127559D-01 E2=     -0.1245489172D+00
     alpha-beta  T2 =       0.1846155079D+00 E2=     -0.6997993270D+00
     beta-beta   T2 =       0.3481127559D-01 E2=     -0.1245489172D+00
 ANorm=    0.1119927703D+01
 E2 =    -0.9488971613D+00 EUMP2 =    -0.28045523745110D+03
          IDoAtm=11111
          Differentiating once with respect to electric field.
                with respect to dipole field.
          Differentiating once with respect to nuclear coordinates.
          There are     1 degrees of freedom in the 1st order CPHF.  IDoFFX=0 NUNeed=     1.
 LinEq1:  Iter=  0 NonCon=     1 RMS=6.60D-03 Max=1.70D-01 NDo=     1
 AX will form     1 AO Fock derivatives at one time.
 LinEq1:  Iter=  1 NonCon=     1 RMS=2.00D-03 Max=3.07D-02 NDo=     1
 LinEq1:  Iter=  2 NonCon=     1 RMS=8.88D-04 Max=1.44D-02 NDo=     1
 LinEq1:  Iter=  3 NonCon=     1 RMS=3.80D-04 Max=8.10D-03 NDo=     1
 LinEq1:  Iter=  4 NonCon=     1 RMS=1.37D-04 Max=1.65D-03 NDo=     1
 LinEq1:  Iter=  5 NonCon=     1 RMS=7.64D-05 Max=1.39D-03 NDo=     1
 LinEq1:  Iter=  6 NonCon=     1 RMS=2.44D-05 Max=2.86D-04 NDo=     1
 LinEq1:  Iter=  7 NonCon=     1 RMS=8.20D-06 Max=1.10D-04 NDo=     1
 LinEq1:  Iter=  8 NonCon=     1 RMS=4.00D-06 Max=6.18D-05 NDo=     1
 LinEq1:  Iter=  9 NonCon=     1 RMS=1.04D-06 Max=1.18D-05 NDo=     1
 LinEq1:  Iter= 10 NonCon=     1 RMS=2.32D-07 Max=2.84D-06 NDo=     1
 LinEq1:  Iter= 11 NonCon=     1 RMS=4.98D-08 Max=7.95D-07 NDo=     1
 LinEq1:  Iter= 12 NonCon=     1 RMS=1.17D-08 Max=1.69D-07 NDo=     1
 LinEq1:  Iter= 13 NonCon=     1 RMS=2.07D-09 Max=2.37D-08 NDo=     1
 LinEq1:  Iter= 14 NonCon=     1 RMS=4.29D-10 Max=5.70D-09 NDo=     1
 LinEq1:  Iter= 15 NonCon=     0 RMS=8.79D-11 Max=8.99D-10 NDo=     1
 Linear equations converged to 1.000D-10 1.000D-09 after    15 iterations.
 End of Minotr F.D. properties file   721 does not exist.
 End of Minotr F.D. properties file   722 does not exist.
 End of Minotr F.D. properties file   788 does not exist.
 Calling FoFJK, ICntrl=  10002127 FMM=F ISym2X=1 I1Cent= 0 IOpClX= 0 NMat=1 NMatS=1 NMatT=0.
 ***** Axes restored to original set *****
 -------------------------------------------------------------------
 Center     Atomic                   Forces (Hartrees/Bohr)
 Number     Number              X              Y              Z
 -------------------------------------------------------------------
      1        1           0.000157931    0.000000000    0.000154744
      2        8           0.000365721    0.000000000    0.000086765
      3        8          -0.000360511   -0.000000000   -0.000922856
      4        7           0.000379729    0.000000000    0.001119052
      5        8          -0.000542870   -0.000000000   -0.000437705
 -------------------------------------------------------------------
 Cartesian Forces:  Max     0.001119052 RMS     0.000451262

 GradGradGradGradGradGradGradGradGradGradGradGradGradGradGradGradGradGrad
 Berny optimization.
 Using GEDIIS/GDIIS optimizer.
 FormGI is forming the generalized inverse of G from B-inverse, IUseBI=4.
 Internal  Forces:  Max     0.000661717 RMS     0.000415335
 Search for a local minimum.
 Step number   3 out of a maximum of   20
 All quantities printed in internal units (Hartrees-Bohrs-Radians)
 Mixed Optimization -- En-DIIS/RFO-DIIS
 Update second derivatives using D2CorX and points    1    2    3
 DE= -1.66D-05 DEPred=-1.34D-05 R= 1.24D+00
 TightC=F SS=  1.41D+00  RLast= 8.34D-03 DXNew= 5.0454D-01 2.5022D-02
 Trust test= 1.24D+00 RLast= 8.34D-03 DXMaxT set to 3.00D-01
 The second derivative matrix:
                          R1        R2        R3        R4        A1
           R1           0.51465
           R2           0.03813   0.32888
           R3           0.01919  -0.08193   0.44585
           R4          -0.02839   0.12127   0.07667   0.96047
           A1           0.02766   0.04337  -0.01664   0.01137   0.24714
           A2           0.00277   0.02690   0.00004  -0.01003   0.02632
           A3           0.00487  -0.05461  -0.00387   0.02986  -0.03552
           D1          -0.00000  -0.00000   0.00000   0.00000  -0.00000
           D2          -0.00000   0.00000   0.00000  -0.00000  -0.00000
                          A2        A3        D1        D2
           A2           0.25786
           A3          -0.01152   0.26990
           D1          -0.00000   0.00000   0.00856
           D2           0.00000  -0.00000  -0.00000   0.01500
 ITU=  1  1  0
 Use linear search instead of GDIIS.
     Eigenvalues ---    0.00856   0.01500   0.19739   0.21991   0.25250
     Eigenvalues ---    0.33888   0.49634   0.52824   0.99147
 RFO step:  Lambda=-4.19756546D-06 EMin= 8.55632611D-03
 Quartic linear search produced a step of  0.31226.
 Iteration  1 RMS(Cart)=  0.00277263 RMS(Int)=  0.00000162
 Iteration  2 RMS(Cart)=  0.00000183 RMS(Int)=  0.00000000
 Iteration  3 RMS(Cart)=  0.00000000 RMS(Int)=  0.00000000
 ClnCor:  largest displacement from symmetrization is 2.78D-10 for atom     3.
 Variable       Old X    -DE/DX   Delta X   Delta X   Delta X     New X
                                 (Linear)    (Quad)   (Total)
    R1        1.86223  -0.00016   0.00009   0.00010   0.00020   1.86243
    R2        2.69876  -0.00056  -0.00157  -0.00164  -0.00320   2.69556
    R3        2.61253  -0.00066  -0.00049  -0.00192  -0.00240   2.61013
    R4        2.25658   0.00066   0.00045   0.00096   0.00141   2.25799
    A1        1.75718  -0.00029  -0.00196   0.00058  -0.00138   1.75580
    A2        1.97429   0.00011  -0.00020   0.00104   0.00084   1.97512
    A3        1.99613  -0.00050   0.00009  -0.00291  -0.00283   1.99330
    D1        0.00000  -0.00000   0.00000  -0.00000  -0.00000   0.00000
    D2       -0.00000  -0.00000   0.00000  -0.00000   0.00000   0.00000
         Item               Value     Threshold  Converged?
 Maximum Force            0.000662     0.000002     NO 
 RMS     Force            0.000415     0.000001     NO 
 Maximum Displacement     0.005015     0.000006     NO 
 RMS     Displacement     0.002774     0.000004     NO 
 Predicted change in Energy=-3.068597D-06
 GradGradGradGradGradGradGradGradGradGradGradGradGradGradGradGradGradGrad

                          Input orientation:                          
 ---------------------------------------------------------------------
 Center     Atomic      Atomic             Coordinates (Angstroms)
 Number     Number       Type             X           Y           Z
 ---------------------------------------------------------------------
      1          1           0       -0.007422   -0.000000   -0.003097
      2          8           0        0.006546   -0.000000    0.982359
      3          8           0        1.412210    0.000000    1.224853
      4          7           0        2.163549    0.000000    0.065865
      5          8           0        1.515608    0.000000   -0.938077
 ---------------------------------------------------------------------
                    Distance matrix (angstroms):
                    1          2          3          4          5
     1  H    0.000000
     2  O    0.985554   0.000000
     3  O    1.877023   1.426427   0.000000
     4  N    2.172066   2.343635   1.381219   0.000000
     5  O    1.787123   2.442405   2.165401   1.194875   0.000000
 Stoichiometry    HNO3
 Framework group  CS[SG(HNO3)]
 Deg. of freedom     7
 Full point group                 CS      NOp   2
 Largest Abelian subgroup         CS      NOp   2
 Largest concise Abelian subgroup C1      NOp   1
                         Standard orientation:                         
 ---------------------------------------------------------------------
 Center     Atomic      Atomic             Coordinates (Angstroms)
 Number     Number       Type             X           Y           Z
 ---------------------------------------------------------------------
      1          1           0        1.108066   -0.598451   -0.000000
      2          8           0        1.315469    0.365033   -0.000000
      3          8           0       -0.000000    0.916609   -0.000000
      4          7           0       -0.992134   -0.044347    0.000000
      5          8           0       -0.585860   -1.168032    0.000000
 ---------------------------------------------------------------------
 Rotational constants (GHZ):          21.3465626           8.1159677           5.8802829
 Standard basis: Aug-CC-pVTZ (5D, 7F)
 There are   166 symmetry adapted cartesian basis functions of A'  symmetry.
 There are    79 symmetry adapted cartesian basis functions of A"  symmetry.
 There are   136 symmetry adapted basis functions of A'  symmetry.
 There are    71 symmetry adapted basis functions of A"  symmetry.
   207 basis functions,   315 primitive gaussians,   245 cartesian basis functions
    16 alpha electrons       16 beta electrons
       nuclear repulsion energy       122.7746790977 Hartrees.
 NAtoms=    5 NActive=    5 NUniq=    5 SFac= 1.00D+00 NAtFMM=   60 NAOKFM=F Big=F
 Integral buffers will be    131072 words long.
 Raffenetti 1 integral format.
 Two-electron integral symmetry is turned on.
 One-electron integrals computed using PRISM.
 NBasis=   207 RedAO= T EigKep=  1.31D-04  NBF=   136    71
 NBsUse=   207 1.00D-06 EigRej= -1.00D+00 NBFU=   136    71
 Initial guess from the checkpoint file:  "HOONO_freq.chk"
 B after Tr=    -0.000000   -0.000000   -0.000000
         Rot=    1.000000    0.000000   -0.000000   -0.000062 Ang=  -0.01 deg.
 Initial guess orbital symmetries:
       Occupied  (A') (A') (A') (A') (A') (A') (A') (A') (A') (A')
                 (A") (A') (A") (A') (A') (A")
       Virtual   (A') (A") (A') (A') (A") (A') (A') (A') (A") (A')
                 (A") (A') (A') (A') (A") (A') (A') (A") (A') (A')
                 (A') (A') (A') (A') (A") (A') (A') (A") (A') (A')
                 (A') (A") (A") (A') (A') (A') (A") (A') (A") (A')
                 (A") (A") (A') (A') (A") (A') (A') (A") (A') (A')
                 (A') (A") (A') (A') (A") (A') (A") (A') (A") (A')
                 (A') (A') (A") (A') (A') (A') (A") (A") (A') (A')
                 (A") (A') (A") (A") (A') (A') (A") (A') (A') (A')
                 (A") (A') (A') (A") (A') (A") (A") (A') (A') (A')
                 (A') (A') (A") (A") (A') (A') (A") (A") (A') (A")
                 (A') (A') (A") (A') (A") (A') (A') (A') (A") (A")
                 (A') (A') (A') (A') (A") (A') (A') (A') (A") (A')
                 (A") (A") (A') (A') (A") (A") (A') (A") (A') (A')
                 (A') (A') (A") (A') (A') (A") (A") (A') (A') (A')
                 (A") (A") (A') (A') (A') (A") (A') (A') (A') (A")
                 (A') (A') (A') (A") (A") (A') (A") (A') (A') (A")
                 (A') (A") (A') (A") (A") (A') (A") (A') (A") (A")
                 (A') (A") (A") (A') (A') (A") (A') (A') (A") (A')
                 (A') (A') (A') (A') (A') (A') (A') (A') (A') (A')
                 (A')
 Requested convergence on RMS density matrix=1.00D-08 within 128 cycles.
 Requested convergence on MAX density matrix=1.00D-06.
 Requested convergence on             energy=1.00D-06.
 No special actions if energy rises.
 SCF Done:  E(RHF) =  -279.506404094     A.U. after    9 cycles
            NFock=  9  Conv=0.83D-08     -V/T= 2.0022
 ExpMin= 2.53D-02 ExpMax= 1.53D+04 ExpMxC= 5.22D+02 IAcc=3 IRadAn=         5 AccDes= 0.00D+00
 HarFok:  IExCor=  205 AccDes= 0.00D+00 IRadAn=         5 IDoV=-2 UseB2=F ITyADJ=14
 ICtDFT= 12500011 ScaDFX=  1.000000  1.000000  1.000000  1.000000
 Range of M.O.s used for correlation:     5   207
 NBasis=   207 NAE=    16 NBE=    16 NFC=     4 NFV=     0
 NROrb=    203 NOA=    12 NOB=    12 NVA=   191 NVB=   191

 **** Warning!!: The largest alpha MO coefficient is  0.16315607D+02

 Fully direct method using O(ONN) memory.
 JobTyp=1 Pass  1:  I=   5 to  14 NPSUse=  1 ParTrn=F ParDer=F DoDerP=T.
 JobTyp=1 Pass  2:  I=  15 to  16 NPSUse=  1 ParTrn=F ParDer=F DoDerP=T.
 Spin components of T(2) and E(2):
     alpha-alpha T2 =       0.3480182585D-01 E2=     -0.1245614970D+00
     alpha-beta  T2 =       0.1844994541D+00 E2=     -0.6997119342D+00
     beta-beta   T2 =       0.3480182585D-01 E2=     -0.1245614970D+00
 ANorm=    0.1119867450D+01
 E2 =    -0.9488349283D+00 EUMP2 =    -0.28045523902207D+03
          IDoAtm=11111
          Differentiating once with respect to electric field.
                with respect to dipole field.
          Differentiating once with respect to nuclear coordinates.
          There are     1 degrees of freedom in the 1st order CPHF.  IDoFFX=0 NUNeed=     1.
 LinEq1:  Iter=  0 NonCon=     1 RMS=6.60D-03 Max=1.70D-01 NDo=     1
 AX will form     1 AO Fock derivatives at one time.
 LinEq1:  Iter=  1 NonCon=     1 RMS=2.00D-03 Max=3.07D-02 NDo=     1
 LinEq1:  Iter=  2 NonCon=     1 RMS=8.88D-04 Max=1.44D-02 NDo=     1
 LinEq1:  Iter=  3 NonCon=     1 RMS=3.80D-04 Max=8.13D-03 NDo=     1
 LinEq1:  Iter=  4 NonCon=     1 RMS=1.37D-04 Max=1.67D-03 NDo=     1
 LinEq1:  Iter=  5 NonCon=     1 RMS=7.64D-05 Max=1.39D-03 NDo=     1
 LinEq1:  Iter=  6 NonCon=     1 RMS=2.44D-05 Max=3.15D-04 NDo=     1
 LinEq1:  Iter=  7 NonCon=     1 RMS=8.20D-06 Max=1.11D-04 NDo=     1
 LinEq1:  Iter=  8 NonCon=     1 RMS=3.99D-06 Max=6.17D-05 NDo=     1
 LinEq1:  Iter=  9 NonCon=     1 RMS=1.04D-06 Max=1.19D-05 NDo=     1
 LinEq1:  Iter= 10 NonCon=     1 RMS=2.32D-07 Max=2.87D-06 NDo=     1
 LinEq1:  Iter= 11 NonCon=     1 RMS=4.98D-08 Max=7.99D-07 NDo=     1
 LinEq1:  Iter= 12 NonCon=     1 RMS=1.17D-08 Max=1.72D-07 NDo=     1
 LinEq1:  Iter= 13 NonCon=     1 RMS=2.06D-09 Max=2.13D-08 NDo=     1
 LinEq1:  Iter= 14 NonCon=     1 RMS=4.29D-10 Max=5.69D-09 NDo=     1
 LinEq1:  Iter= 15 NonCon=     0 RMS=8.77D-11 Max=9.14D-10 NDo=     1
 Linear equations converged to 1.000D-10 1.000D-09 after    15 iterations.
 End of Minotr F.D. properties file   721 does not exist.
 End of Minotr F.D. properties file   722 does not exist.
 End of Minotr F.D. properties file   788 does not exist.
 Calling FoFJK, ICntrl=  10002127 FMM=F ISym2X=1 I1Cent= 0 IOpClX= 0 NMat=1 NMatS=1 NMatT=0.
 ***** Axes restored to original set *****
 -------------------------------------------------------------------
 Center     Atomic                   Forces (Hartrees/Bohr)
 Number     Number              X              Y              Z
 -------------------------------------------------------------------
      1        1          -0.000043129   -0.000000000    0.000064891
      2        8          -0.000083709   -0.000000000   -0.000073828
      3        8           0.000518382    0.000000000    0.000158734
      4        7          -0.000598782   -0.000000000    0.000498305
      5        8           0.000207238    0.000000000   -0.000648102
 -------------------------------------------------------------------
 Cartesian Forces:  Max     0.000648102 RMS     0.000303565

 GradGradGradGradGradGradGradGradGradGradGradGradGradGradGradGradGradGrad
 Berny optimization.
 Using GEDIIS/GDIIS optimizer.
 FormGI is forming the generalized inverse of G from B-inverse, IUseBI=4.
 Internal  Forces:  Max     0.001186713 RMS     0.000427278
 Search for a local minimum.
 Step number   4 out of a maximum of   20
 All quantities printed in internal units (Hartrees-Bohrs-Radians)
 Mixed Optimization -- En-DIIS/RFO-DIIS
 Swapping is turned off.
 Update second derivatives using D2CorX and points    1    2    3    4
 DE= -1.57D-06 DEPred=-3.07D-06 R= 5.12D-01
 TightC=F SS=  1.41D+00  RLast= 5.35D-03 DXNew= 5.0454D-01 1.6054D-02
 Trust test= 5.12D-01 RLast= 5.35D-03 DXMaxT set to 3.00D-01
 The second derivative matrix:
                          R1        R2        R3        R4        A1
           R1           0.52244
           R2           0.02623   0.32021
           R3           0.02060  -0.10660   0.42063
           R4          -0.02516   0.18294   0.13008   0.87723
           A1           0.02847   0.03509  -0.01873   0.03408   0.24349
           A2           0.00025   0.03875   0.00824  -0.01932   0.02751
           A3          -0.00446   0.05646   0.04416   0.01301   0.01585
           D1          -0.00000  -0.00000   0.00000  -0.00000  -0.00000
           D2          -0.00000   0.00000   0.00000  -0.00000  -0.00000
                          A2        A3        D1        D2
           A2           0.25713
           A3           0.00345   0.49345
           D1          -0.00000   0.00000   0.00856
           D2           0.00000   0.00000   0.00000   0.01500
 ITU=  1  1  1  0
     Eigenvalues ---    0.00856   0.01500   0.14838   0.22185   0.28060
     Eigenvalues ---    0.49377   0.50421   0.53104   0.95474
 En-DIIS/RFO-DIIS/Sim-DIIS IScMMF=       -3 using points:     4    3
 RFO step:  Lambda=-3.44413847D-06.
 DidBck=F Rises=F RFO-DIIS coefs:    0.98801    0.01199
 Iteration  1 RMS(Cart)=  0.00183669 RMS(Int)=  0.00000255
 Iteration  2 RMS(Cart)=  0.00000207 RMS(Int)=  0.00000000
 Iteration  3 RMS(Cart)=  0.00000000 RMS(Int)=  0.00000000
 ClnCor:  largest displacement from symmetrization is 1.69D-10 for atom     3.
 Variable       Old X    -DE/DX   Delta X   Delta X   Delta X     New X
                                 (Linear)    (Quad)   (Total)
    R1        1.86243  -0.00006  -0.00000   0.00002   0.00002   1.86245
    R2        2.69556   0.00013   0.00004  -0.00096  -0.00093   2.69463
    R3        2.61013  -0.00009   0.00003  -0.00100  -0.00097   2.60915
    R4        2.25799   0.00043  -0.00002   0.00082   0.00081   2.25879
    A1        1.75580   0.00008   0.00002   0.00002   0.00004   1.75584
    A2        1.97512   0.00012  -0.00001   0.00066   0.00065   1.97577
    A3        1.99330   0.00119   0.00003   0.00254   0.00257   1.99587
    D1        0.00000   0.00000   0.00000  -0.00000   0.00000   0.00000
    D2       -0.00000   0.00000   0.00000  -0.00000   0.00000   0.00000
         Item               Value     Threshold  Converged?
 Maximum Force            0.001187     0.000002     NO 
 RMS     Force            0.000427     0.000001     NO 
 Maximum Displacement     0.003315     0.000006     NO 
 RMS     Displacement     0.001837     0.000004     NO 
 Predicted change in Energy=-1.722084D-06
 GradGradGradGradGradGradGradGradGradGradGradGradGradGradGradGradGradGrad

                          Input orientation:                          
 ---------------------------------------------------------------------
 Center     Atomic      Atomic             Coordinates (Angstroms)
 Number     Number       Type             X           Y           Z
 ---------------------------------------------------------------------
      1          1           0       -0.008117   -0.000000   -0.002302
      2          8           0        0.006497   -0.000000    0.983155
      3          8           0        1.411827    0.000000    1.224700
      4          7           0        2.162920    0.000000    0.066166
      5          8           0        1.517362    0.000000   -0.939816
 ---------------------------------------------------------------------
                    Distance matrix (angstroms):
                    1          2          3          4          5
     1  H    0.000000
     2  O    0.985565   0.000000
     3  O    1.876640   1.425937   0.000000
     4  N    2.172117   2.343294   1.380704   0.000000
     5  O    1.790536   2.445512   2.167088   1.195301   0.000000
 Stoichiometry    HNO3
 Framework group  CS[SG(HNO3)]
 Deg. of freedom     7
 Full point group                 CS      NOp   2
 Largest Abelian subgroup         CS      NOp   2
 Largest concise Abelian subgroup C1      NOp   1
                         Standard orientation:                         
 ---------------------------------------------------------------------
 Center     Atomic      Atomic             Coordinates (Angstroms)
 Number     Number       Type             X           Y           Z
 ---------------------------------------------------------------------
      1          1           0        1.109487   -0.597030   -0.000000
      2          8           0        1.315685    0.366723   -0.000000
      3          8           0        0.000000    0.916514    0.000000
      4          7           0       -0.991219   -0.044646    0.000000
      5          8           0       -0.587054   -1.169544   -0.000000
 ---------------------------------------------------------------------
 Rotational constants (GHZ):          21.3696962           8.1020429           5.8747193
 Standard basis: Aug-CC-pVTZ (5D, 7F)
 There are   166 symmetry adapted cartesian basis functions of A'  symmetry.
 There are    79 symmetry adapted cartesian basis functions of A"  symmetry.
 There are   136 symmetry adapted basis functions of A'  symmetry.
 There are    71 symmetry adapted basis functions of A"  symmetry.
   207 basis functions,   315 primitive gaussians,   245 cartesian basis functions
    16 alpha electrons       16 beta electrons
       nuclear repulsion energy       122.7499024600 Hartrees.
 NAtoms=    5 NActive=    5 NUniq=    5 SFac= 1.00D+00 NAtFMM=   60 NAOKFM=F Big=F
 Integral buffers will be    131072 words long.
 Raffenetti 1 integral format.
 Two-electron integral symmetry is turned on.
 One-electron integrals computed using PRISM.
 NBasis=   207 RedAO= T EigKep=  1.31D-04  NBF=   136    71
 NBsUse=   207 1.00D-06 EigRej= -1.00D+00 NBFU=   136    71
 Initial guess from the checkpoint file:  "HOONO_freq.chk"
 B after Tr=     0.000000    0.000000    0.000000
         Rot=    1.000000   -0.000000   -0.000000   -0.000204 Ang=  -0.02 deg.
 Initial guess orbital symmetries:
       Occupied  (A') (A') (A') (A') (A') (A') (A') (A') (A') (A')
                 (A") (A') (A') (A") (A') (A")
       Virtual   (A') (A") (A') (A') (A") (A') (A') (A') (A") (A')
                 (A") (A') (A') (A') (A") (A') (A') (A") (A') (A')
                 (A') (A') (A') (A') (A") (A') (A') (A") (A') (A')
                 (A') (A") (A") (A') (A') (A') (A") (A') (A") (A')
                 (A") (A") (A') (A') (A") (A') (A') (A") (A') (A')
                 (A') (A") (A') (A') (A") (A') (A") (A') (A") (A')
                 (A') (A') (A") (A') (A') (A') (A") (A") (A') (A')
                 (A") (A') (A") (A") (A') (A') (A") (A') (A') (A')
                 (A") (A') (A') (A") (A') (A") (A") (A') (A') (A')
                 (A') (A') (A") (A") (A') (A') (A") (A") (A') (A")
                 (A') (A') (A") (A') (A") (A') (A') (A') (A") (A")
                 (A') (A') (A') (A') (A") (A') (A') (A') (A") (A')
                 (A") (A") (A') (A') (A") (A") (A') (A") (A') (A')
                 (A') (A') (A") (A') (A') (A") (A") (A') (A') (A')
                 (A") (A") (A') (A') (A') (A") (A') (A') (A') (A")
                 (A') (A') (A') (A") (A') (A") (A") (A') (A') (A")
                 (A') (A") (A') (A") (A") (A') (A") (A') (A") (A")
                 (A') (A") (A") (A') (A') (A") (A') (A') (A") (A')
                 (A') (A') (A') (A') (A') (A') (A') (A') (A') (A')
                 (A')
 Requested convergence on RMS density matrix=1.00D-08 within 128 cycles.
 Requested convergence on MAX density matrix=1.00D-06.
 Requested convergence on             energy=1.00D-06.
 No special actions if energy rises.
 SCF Done:  E(RHF) =  -279.506419010     A.U. after    9 cycles
            NFock=  9  Conv=0.79D-08     -V/T= 2.0022
 ExpMin= 2.53D-02 ExpMax= 1.53D+04 ExpMxC= 5.22D+02 IAcc=3 IRadAn=         5 AccDes= 0.00D+00
 HarFok:  IExCor=  205 AccDes= 0.00D+00 IRadAn=         5 IDoV=-2 UseB2=F ITyADJ=14
 ICtDFT= 12500011 ScaDFX=  1.000000  1.000000  1.000000  1.000000
 Range of M.O.s used for correlation:     5   207
 NBasis=   207 NAE=    16 NBE=    16 NFC=     4 NFV=     0
 NROrb=    203 NOA=    12 NOB=    12 NVA=   191 NVB=   191

 **** Warning!!: The largest alpha MO coefficient is  0.16292731D+02

 Fully direct method using O(ONN) memory.
 JobTyp=1 Pass  1:  I=   5 to  14 NPSUse=  1 ParTrn=F ParDer=F DoDerP=T.
 JobTyp=1 Pass  2:  I=  15 to  16 NPSUse=  1 ParTrn=F ParDer=F DoDerP=T.
 Spin components of T(2) and E(2):
     alpha-alpha T2 =       0.3480170511D-01 E2=     -0.1245589700D+00
     alpha-beta  T2 =       0.1844966110D+00 E2=     -0.6997027728D+00
     beta-beta   T2 =       0.3480170511D-01 E2=     -0.1245589700D+00
 ANorm=    0.1119866073D+01
 E2 =    -0.9488207129D+00 EUMP2 =    -0.28045523972243D+03
          IDoAtm=11111
          Differentiating once with respect to electric field.
                with respect to dipole field.
          Differentiating once with respect to nuclear coordinates.
          There are     1 degrees of freedom in the 1st order CPHF.  IDoFFX=0 NUNeed=     1.
 LinEq1:  Iter=  0 NonCon=     1 RMS=6.60D-03 Max=1.70D-01 NDo=     1
 AX will form     1 AO Fock derivatives at one time.
 LinEq1:  Iter=  1 NonCon=     1 RMS=2.00D-03 Max=3.08D-02 NDo=     1
 LinEq1:  Iter=  2 NonCon=     1 RMS=8.89D-04 Max=1.44D-02 NDo=     1
 LinEq1:  Iter=  3 NonCon=     1 RMS=3.80D-04 Max=8.16D-03 NDo=     1
 LinEq1:  Iter=  4 NonCon=     1 RMS=1.37D-04 Max=1.67D-03 NDo=     1
 LinEq1:  Iter=  5 NonCon=     1 RMS=7.65D-05 Max=1.39D-03 NDo=     1
 LinEq1:  Iter=  6 NonCon=     1 RMS=2.44D-05 Max=3.17D-04 NDo=     1
 LinEq1:  Iter=  7 NonCon=     1 RMS=8.19D-06 Max=1.11D-04 NDo=     1
 LinEq1:  Iter=  8 NonCon=     1 RMS=3.99D-06 Max=6.17D-05 NDo=     1
 LinEq1:  Iter=  9 NonCon=     1 RMS=1.04D-06 Max=1.19D-05 NDo=     1
 LinEq1:  Iter= 10 NonCon=     1 RMS=2.32D-07 Max=2.89D-06 NDo=     1
 LinEq1:  Iter= 11 NonCon=     1 RMS=4.97D-08 Max=8.00D-07 NDo=     1
 LinEq1:  Iter= 12 NonCon=     1 RMS=1.17D-08 Max=1.72D-07 NDo=     1
 LinEq1:  Iter= 13 NonCon=     1 RMS=2.06D-09 Max=2.12D-08 NDo=     1
 LinEq1:  Iter= 14 NonCon=     1 RMS=4.28D-10 Max=5.70D-09 NDo=     1
 LinEq1:  Iter= 15 NonCon=     0 RMS=8.76D-11 Max=9.11D-10 NDo=     1
 Linear equations converged to 1.000D-10 1.000D-09 after    15 iterations.
 End of Minotr F.D. properties file   721 does not exist.
 End of Minotr F.D. properties file   722 does not exist.
 End of Minotr F.D. properties file   788 does not exist.
 Calling FoFJK, ICntrl=  10002127 FMM=F ISym2X=1 I1Cent= 0 IOpClX= 0 NMat=1 NMatS=1 NMatT=0.
 ***** Axes restored to original set *****
 -------------------------------------------------------------------
 Center     Atomic                   Forces (Hartrees/Bohr)
 Number     Number              X              Y              Z
 -------------------------------------------------------------------
      1        1          -0.000078002   -0.000000000    0.000072320
      2        8          -0.000425666   -0.000000000   -0.000319108
      3        8           0.000594325    0.000000000   -0.000123687
      4        7          -0.000022454   -0.000000000   -0.000019764
      5        8          -0.000068202   -0.000000000    0.000390239
 -------------------------------------------------------------------
 Cartesian Forces:  Max     0.000594325 RMS     0.000233907

 GradGradGradGradGradGradGradGradGradGradGradGradGradGradGradGradGradGrad
 Berny optimization.
 Using GEDIIS/GDIIS optimizer.
 FormGI is forming the generalized inverse of G from B-inverse, IUseBI=4.
 Internal  Forces:  Max     0.000605702 RMS     0.000329223
 Search for a local minimum.
 Step number   5 out of a maximum of   20
 All quantities printed in internal units (Hartrees-Bohrs-Radians)
 Mixed Optimization -- En-DIIS/RFO-DIIS
 Swapping is turned off.
 Update second derivatives using D2CorX and points    1    2    3    4    5
 DE= -7.00D-07 DEPred=-1.72D-06 R= 4.07D-01
 Trust test= 4.07D-01 RLast= 3.08D-03 DXMaxT set to 3.00D-01
 The second derivative matrix:
                          R1        R2        R3        R4        A1
           R1           0.51520
           R2           0.02458   0.43036
           R3           0.01842  -0.15887   0.39724
           R4          -0.01560   0.09932   0.21023   0.90385
           A1           0.02262   0.07254  -0.03437   0.00807   0.25215
           A2           0.00654  -0.02433   0.02921   0.03111   0.01120
           A3           0.01737  -0.09150   0.12646   0.10597  -0.02170
           D1          -0.00000  -0.00000   0.00000  -0.00000  -0.00000
           D2          -0.00000   0.00000   0.00000   0.00000  -0.00000
                          A2        A3        D1        D2
           A2           0.28692
           A3           0.07382   0.66050
           D1          -0.00000   0.00000   0.00856
           D2           0.00000   0.00000   0.00000   0.01500
 ITU=  0  1  1  1  0
     Eigenvalues ---    0.00856   0.01500   0.17702   0.22942   0.27805
     Eigenvalues ---    0.46148   0.52861   0.73040   1.04125
 En-DIIS/RFO-DIIS/Sim-DIIS IScMMF=       -3 using points:     5    4    3
 RFO step:  Lambda=-1.32609749D-06.
 DidBck=T Rises=F RFO-DIIS coefs:    0.64857    0.24778    0.10364
 Iteration  1 RMS(Cart)=  0.00082294 RMS(Int)=  0.00000034
 Iteration  2 RMS(Cart)=  0.00000027 RMS(Int)=  0.00000000
 ClnCor:  largest displacement from symmetrization is 2.54D-11 for atom     3.
 Variable       Old X    -DE/DX   Delta X   Delta X   Delta X     New X
                                 (Linear)    (Quad)   (Total)
    R1        1.86245  -0.00007  -0.00003  -0.00015  -0.00018   1.86227
    R2        2.69463   0.00054   0.00066   0.00046   0.00111   2.69574
    R3        2.60915  -0.00036   0.00059  -0.00063  -0.00004   2.60911
    R4        2.25879  -0.00029  -0.00043   0.00009  -0.00034   2.25846
    A1        1.75584   0.00015   0.00013   0.00015   0.00028   1.75612
    A2        1.97577  -0.00028  -0.00031  -0.00040  -0.00071   1.97506
    A3        1.99587  -0.00061  -0.00061  -0.00001  -0.00062   1.99526
    D1        0.00000   0.00000   0.00000   0.00000   0.00000   0.00000
    D2       -0.00000   0.00000   0.00000   0.00000   0.00000   0.00000
         Item               Value     Threshold  Converged?
 Maximum Force            0.000606     0.000002     NO 
 RMS     Force            0.000329     0.000001     NO 
 Maximum Displacement     0.001360     0.000006     NO 
 RMS     Displacement     0.000823     0.000004     NO 
 Predicted change in Energy=-6.624401D-07
 GradGradGradGradGradGradGradGradGradGradGradGradGradGradGradGradGradGrad

                          Input orientation:                          
 ---------------------------------------------------------------------
 Center     Atomic      Atomic             Coordinates (Angstroms)
 Number     Number       Type             X           Y           Z
 ---------------------------------------------------------------------
      1          1           0       -0.007997   -0.000000   -0.002690
      2          8           0        0.006498   -0.000000    0.982675
      3          8           0        1.412311    0.000000    1.224883
      4          7           0        2.163035    0.000000    0.066134
      5          8           0        1.516643    0.000000   -0.939100
 ---------------------------------------------------------------------
                    Distance matrix (angstroms):
                    1          2          3          4          5
     1  H    0.000000
     2  O    0.985471   0.000000
     3  O    1.877288   1.426526   0.000000
     4  N    2.172122   2.343224   1.380683   0.000000
     5  O    1.789243   2.444127   2.166497   1.195123   0.000000
 Stoichiometry    HNO3
 Framework group  CS[SG(HNO3)]
 Deg. of freedom     7
 Full point group                 CS      NOp   2
 Largest Abelian subgroup         CS      NOp   2
 Largest concise Abelian subgroup C1      NOp   1
                         Standard orientation:                         
 ---------------------------------------------------------------------
 Center     Atomic      Atomic             Coordinates (Angstroms)
 Number     Number       Type             X           Y           Z
 ---------------------------------------------------------------------
      1          1           0        1.108921   -0.598038    0.000000
      2          8           0        1.315720    0.365491    0.000000
      3          8           0       -0.000000    0.916724    0.000000
      4          7           0       -0.991409   -0.044209    0.000000
      5          8           0       -0.586852   -1.168777    0.000000
 ---------------------------------------------------------------------
 Rotational constants (GHZ):          21.3521318           8.1090671           5.8770816
 Standard basis: Aug-CC-pVTZ (5D, 7F)
 There are   166 symmetry adapted cartesian basis functions of A'  symmetry.
 There are    79 symmetry adapted cartesian basis functions of A"  symmetry.
 There are   136 symmetry adapted basis functions of A'  symmetry.
 There are    71 symmetry adapted basis functions of A"  symmetry.
   207 basis functions,   315 primitive gaussians,   245 cartesian basis functions
    16 alpha electrons       16 beta electrons
       nuclear repulsion energy       122.7579443610 Hartrees.
 NAtoms=    5 NActive=    5 NUniq=    5 SFac= 1.00D+00 NAtFMM=   60 NAOKFM=F Big=F
 Integral buffers will be    131072 words long.
 Raffenetti 1 integral format.
 Two-electron integral symmetry is turned on.
 One-electron integrals computed using PRISM.
 NBasis=   207 RedAO= T EigKep=  1.31D-04  NBF=   136    71
 NBsUse=   207 1.00D-06 EigRej= -1.00D+00 NBFU=   136    71
 Initial guess from the checkpoint file:  "HOONO_freq.chk"
 B after Tr=    -0.000000    0.000000    0.000000
         Rot=    1.000000   -0.000000   -0.000000    0.000221 Ang=   0.03 deg.
 Initial guess orbital symmetries:
       Occupied  (A') (A') (A') (A') (A') (A') (A') (A') (A') (A')
                 (A") (A') (A') (A") (A') (A")
       Virtual   (A') (A") (A') (A') (A") (A') (A') (A') (A") (A')
                 (A") (A') (A') (A') (A") (A') (A') (A") (A') (A')
                 (A') (A') (A') (A') (A") (A') (A') (A") (A') (A')
                 (A') (A") (A") (A') (A') (A') (A") (A') (A") (A')
                 (A") (A") (A') (A') (A") (A') (A') (A") (A') (A')
                 (A') (A") (A') (A') (A") (A') (A") (A') (A") (A')
                 (A') (A') (A") (A') (A') (A') (A") (A") (A') (A')
                 (A") (A') (A") (A") (A') (A') (A") (A') (A') (A')
                 (A") (A') (A') (A") (A') (A") (A") (A') (A') (A')
                 (A') (A') (A") (A") (A') (A') (A") (A") (A') (A")
                 (A') (A') (A") (A') (A") (A') (A') (A') (A") (A")
                 (A') (A') (A') (A') (A") (A') (A') (A') (A") (A')
                 (A") (A") (A') (A') (A") (A") (A') (A") (A') (A')
                 (A') (A') (A") (A') (A') (A") (A") (A') (A') (A')
                 (A") (A") (A') (A') (A') (A") (A') (A') (A') (A")
                 (A') (A') (A') (A") (A') (A") (A") (A') (A') (A")
                 (A') (A") (A') (A") (A") (A') (A") (A') (A") (A")
                 (A') (A") (A") (A') (A') (A") (A') (A') (A") (A')
                 (A') (A') (A') (A') (A') (A') (A') (A') (A') (A')
                 (A')
 Requested convergence on RMS density matrix=1.00D-08 within 128 cycles.
 Requested convergence on MAX density matrix=1.00D-06.
 Requested convergence on             energy=1.00D-06.
 No special actions if energy rises.
 SCF Done:  E(RHF) =  -279.506415724     A.U. after    8 cycles
[...]
 1\1\GINC-N2081\Freq\RMP2-FC\Aug-CC-pVTZ\H1N1O3\B3M2A1\12-Jun-2021\0\\#
 N Geom=AllCheck Guess=TCheck SCRF=Check GenChk RMP2(FC)/Aug-CC-pVTZ Fr
 eq\\HOONO freq\\0,1\H,-0.0083103805,0.,-0.0026082395\O,0.0062476911,0.
 ,0.9827222472\O,1.4126848863,0.,1.224498367\N,2.1630199964,0.,0.066404
 8943\O,1.5168474644,0.,-0.9391146459\\Version=ES64L-G16RevB.01\State=1
 -A'\HF=-279.5064307\MP2=-280.4552408\RMSD=2.229e-09\RMSF=2.219e-07\Zer
 oPoint=0.0234403\Thermal=0.0273732\Dipole=-0.1174669,0.,-0.4118517\Dip
 oleDeriv=0.3173491,0.,0.0360942,0.,0.2980841,0.,-0.0262211,0.,0.199953
 1,-0.5263704,0.,0.2875542,0.,-0.2540092,0.,-0.098614,0.,-0.1285221,0.0
 180848,0.,0.3213654,0.,-0.0097028,0.,0.4258652,0.,-0.9304805,0.1863502
 ,0.,-0.1175946,0.,0.0119908,0.,-0.6415428,0.,1.7259075,0.0045864,0.,-0
 .5274192,0.,-0.0463629,0.,0.3405128,0.,-0.866858\Polar=29.0666134,0.,1
 7.6179361,-3.9599285,0.,31.7181671\Quadrupole=0.1926624,0.6092003,-0.8
 018627,0.,1.3935592,0.\PG=CS [SG(H1N1O3)]\NImag=0\\0.07292638,0.,0.006
 14943,0.02968473,0.,0.43568031,-0.05160667,0.,-0.01022175,0.27999573,0
 .,-0.00248527,0.,0.,0.01236439,0.02657320,0.,-0.42056073,-0.00900885,0
 .,0.52257132,-0.02600628,0.,-0.01580598,-0.17110410,0.,-0.08986398,0.3
 0584287,0.,-0.00418580,0.,0.,-0.01917779,0.,0.,0.04118854,-0.04387860,
 0.,-0.01904610,0.01174115,0.,-0.09544098,0.08096394,0.,0.31593760,-0.0
 0588152,0.,0.00664774,-0.08342789,0.,0.04142785,-0.14438255,0.,-0.0334
 7349,0.56116602,0.,0.00802982,0.,0.,0.01994801,0.,0.,-0.04807413,0.,0.
 ,0.05783800,-0.01891222,0.,0.01213343,0.01193088,0.,-0.01109389,0.0184
 7053,0.,-0.02681056,0.24028526,0.,0.44221392,0.01056809,0.,-0.01030473
 ,0.02614293,0.,0.03087178,0.03565006,0.,-0.01535300,-0.32747406,0.,-0.
 25177445,0.25511298,0.,-0.00750817,0.,0.,-0.01064933,0.,0.,0.03024918,
 0.,0.,-0.03774170,0.,0.,0.02565002,0.00653289,0.,-0.00820691,-0.004441
 43,0.,0.00452428,0.00623549,0.,-0.17463996,-0.25488736,0.,-0.41644289,
 0.24656041,0.,0.59476548\\-0.00000002,0.,0.00000053,0.00000023,0.,-0.0
 0000056,-0.00000016,0.,0.,0.00000003,0.,0.00000020,-0.00000008,0.,-0.0
 0000016\\0.,0.00344874,0.,0.,-0.21002173,0.,0.,-0.00343113,0.,0.,-0.02
 469056,0.,0.20660805,0.02910333,0.,0.,0.21502536,0.,0.,-0.22519913,0.,
 0.,0.00281008,0.,0.,-0.01039195,0.,0.,0.02473904,0.,-0.00370655,-0.026
 63961,0.,0.01816140,0.00501609,0.,0.,-0.01174285,0.,0.,0.02439291,0.,0
 .,-0.01589189,0.,0.,0.00011202,0.,0.,0.00654930,0.,0.,0.00300288,0.,0.
 ,0.00055789,0.,0.00463983,0.00106722,0.,-0.00750679,0.00732306,0.,0.00
 596851,-0.03397242,0.,0.,0.00944800,0.,0.,-0.00869698,0.,0.,0.00922638
 ,0.,0.,-0.02998184,0.,0.,-0.00293970,0.,0.,-0.00057012,0.,0.,-0.006118
 40,0.,0.,0.02502424,0.,0.,-0.00405512,0.,0.00248039,-0.00009980,0.,-0.
 00048083,-0.00475729,0.,-0.00272668,0.02430822,0.,0.02000444,-0.015396
 02,0.,0.,-0.00270879,0.,0.,0.00289516,0.,0.,-0.00778933,0.,0.,0.026880
 29,0.,0.,-0.01927733,0.,0.00336134,0.,0.00328823,-0.01948885,0.,-0.025
 30750,-0.00355049,0.,0.03075527,0.03023433,0.,-0.00229534,0.,0.,0.0020
 0468,0.02077568,0.,0.03921614,-0.04034983,0.,-0.01496127,0.00360796,0.
 ,-0.00843345,-0.00436406,0.,-0.01121926,0.01590677,0.,-0.00023213,0.,0
 .,-0.00579274,0.,0.,0.00753257,0.00545495,0.,-0.01336255,0.00005199,0.
 ,0.00133424,-0.00495086,0.,0.03799650,-0.00681299,0.,0.00017759,-0.014
 62689,0.,-0.00099455,-0.00332410,0.,0.01409204,0.04190043,0.,0.0019148
 3,0.,0.,0.00471883,0.,0.,-0.00650262,0.,0.,0.00835667,-0.00950239,0.,0
 .00666351,0.00858040,0.,-0.01664676,0.02817263,0.,-0.01834682,-0.02988
 020,0.,-0.01820233,0.00339417,0.,-0.00301055,-0.00769289,0.,0.03178795
 ,-0.01182657,0.,-0.01464812,-0.01713644,0.,0.00262956,0.03326173,0.,-0
 .00267559,0.,0.,0.00136458,0.,0.,0.00499493,0.,0.,-0.00848771,0.,0.,0.
 00480379,0.00276062,0.,-0.00720960,0.00096217,0.,-0.00894234,-0.003569
 06,0.,-0.00762138,0.01660512,0.,0.04653240,-0.01675884,0.,-0.02275908,
 0.,-0.00294319,0.,0.,-0.12494575,0.,0.,0.00477409,0.,0.,-0.00772403,0.
 ,0.11712832,0.00491762,0.,0.,0.12134728,0.,0.,-0.13097481,0.,0.,0.0028
 0597,0.,0.,0.01140447,0.,0.,0.01070645,0.,0.00661086,-0.00915246,0.,0.
 01031057,-0.00746822,0.,0.,-0.00133295,0.,0.,0.01265157,0.,0.,-0.01238
 411,0.,0.,-0.00166889,0.,0.,-0.00795989,0.,0.,-0.00467769,0.,0.,0.0040
 2117,0.,-0.00393860,0.00331323,0.,0.00434343,-0.01774068,0.,-0.0051202
 6,0.06428118,0.,0.,0.00529083,0.,0.,0.00154223,0.,0.,-0.00628203,0.,0.
 ,0.05634305,0.,0.,-0.00296798,0.,0.,-0.00063818,0.,0.,0.01059191,0.,0.
 ,-0.05387490,0.,0.,-0.00406041,0.,0.00514516,-0.00385248,0.,-0.0050264
 6,0.01099845,0.,0.00618575,-0.04997470,0.,-0.05689408,0.04688914,0.,0.
 ,-0.00035941,0.,0.,-0.00034731,0.,0.,0.00174471,0.,0.,-0.05162763,0.,0
 .,0.05058964,0.,0.00204530,0.,-0.00367982,-0.02739817,0.,0.00310886,0.
 00135959,0.,0.02784904,0.02244285,0.,0.00409803,0.,0.,-0.00585875,0.02
 483165,0.,-0.00074982,-0.01067285,0.,0.00052796,0.00162220,0.,-0.00432
 234,-0.04260087,0.,-0.00475920,-0.02553513,0.,-0.00207073,0.,0.,0.0061
 4556,0.,0.,0.00555146,0.00541651,0.,-0.00268647,-0.00133988,0.,0.01545
 326,0.10145404,0.,-0.27117559,-0.00362733,0.,0.00231239,0.02280268,0.,
 -0.00932105,0.05289871,0.,-0.06309932,-0.00798887,0.,0.00079090,0.,0.,
 -0.00598761,0.,0.,-0.00010847,0.,0.,-0.00136507,-0.00552785,0.,-0.0013
 5543,-0.01137220,0.,-0.01405702,-0.10898683,0.,0.25012751,0.13325242,0
 .,-0.23288010,-0.00139976,0.,0.00155908,-0.00400425,0.,-0.00007854,0.0
 1361510,0.,-0.04243134,-0.06408518,0.,-0.00736553,0.05587409,0.,0.0008
 6162,0.,0.,0.00160278,0.,0.,-0.00951782,0.,0.,0.00667026,0.,0.,0.00038
 316,0.00267787,0.,0.00168287,-0.00446411,0.,-0.00117438,0.01661434,0.,
 0.00828129,-0.06314444,0.,-0.00183495,0.04831633,0.,-0.00695483,0.0189
 1586,0.,0.00183250,0.01327039,0.,-0.02748882,-0.00392063,0.,-0.0001598
 6,0.20221702,0.,-0.00252697,0.,0.,-0.01728572,0.00524820,0.,0.02797834
 ,0.02760056,0.,-0.01572222,-0.01108311,0.,-0.01039754,-0.18274543,0.,-
 0.04583049,0.21327399,0.,0.00055119,0.,0.,0.01358778,0.,0.,-0.00658533
 ,-0.01043489,0.,-0.00553853,-0.01943082,0.,-0.00742643,0.02423397,0.,-
 0.00490865,-0.00708746,0.,0.00443658,-0.02989768,0.,0.00744428,-0.0065
 2360,0.,0.00025356,-0.00526636,0.,0.00165669,0.,0.,0.01057496,0.,0.,-0
 .00369206,0.,0.,-0.00810124,-0.00493313,0.,0.00268946,-0.00946475,0.,-
 0.00459055,0.02450098,0.,-0.01281551,-0.05336194,0.,0.00284981,0.00317
 535,0.,-0.00714958,0.01434672,0.,0.00553745,-0.01292185,0.,0.00537818,
 0.04877511,0.,0.04325884,-0.05337532,0.,-0.00151341,0.,0.,-0.00435006,
 0.,0.,-0.00386157,0.,0.,-0.00043834,0.,0.,0.01016338,-0.00315057,0.,0.
 00235955,0.00145486,0.,-0.00023913,0.00749307,0.,0.03068911,0.04122752
 ,0.,0.01186679,-0.04702489,0.,-0.04467632,-0.00100490,0.,0.00227212,-0
 .05422268,0.,-0.00679218,0.00450635,0.,0.04922674,-0.15602211,0.,-0.00
 480401,0.,0.,0.02145050,0.04673316,0.,0.00732368,-0.08313357,0.,-0.014
 69756,0.00568113,0.,0.00887423,0.17532342,0.,0.03778077,-0.17431314,0.
 ,0.00250221,0.,0.,-0.02505798,0.,0.,0.03156116,0.01120683,0.,-0.009235
 49,0.01509181,0.,0.02213811,-0.05872095,0.,-0.03821775,-0.00852744,0.,
 -0.00122691,-0.01739075,0.,-0.00268388,-0.00381438,0.,0.02464680,-0.02
 319825,0.,0.00056195,0.,0.,0.00621907,0.,0.,0.00798200,0.,0.,-0.018677
 32,-0.00227389,0.,0.00818109,0.01961175,0.,-0.00513446,0.00599621,0.,-
 0.03802145,-0.06683688,0.,0.00445197,-0.00065514,0.,-0.00265138,-0.006
 41691,0.,0.00130351,-0.00287703,0.,0.00777551,0.05293081,0.,0.04350281
 ,-0.04298173,0.,-0.00053227,0.,0.,0.00219243,0.,0.,-0.01698738,0.,0.,0
 .00391430,0.,0.,0.01141292,-0.00144342,0.,0.00052289,-0.00079673,0.,-0
 .00962978,0.00606974,0.,0.06333658,0.04610087,0.,0.03052285,-0.0499304
 5,0.,-0.08475255,0.03042954,0.,0.01729715,-0.11973567,0.,-0.11757637,0
 .02421272,0.,0.17367213,-0.04112854,0.,-0.04015568,0.,0.,0.06253052,0.
 14930769,0.,0.14821866,-0.13439878,0.,-0.14783299,-0.03872080,0.,-0.03
 492278,-0.00552539,0.,-0.02218091,0.05349032,0.,0.02698570,0.,0.,-0.02
 242175,0.,0.,0.00365112,-0.00988049,0.,-0.06221267,-0.02299075,0.,0.02
 383423,0.03943663,0.,0.08064678,-0.02846800,0.,0.00815170,0.01830690,0
 .,-0.01988220,0.01076661,0.,-0.00523316,-0.08610264,0.,0.00162062,0.,0
 .,0.00043117,0.,0.,-0.01716644,0.,0.,0.05006725,-0.01484594,0.,0.02752
 413,-0.01766430,0.,-0.00972026,0.02753525,0.,-0.05892595,-0.13866073,0
 .,-0.13610437,0.01254655,0.,-0.02716538,0.00413431,0.,0.02715420,-0.02
 001074,0.,-0.00133222,0.08549713,0.,0.14363572,-0.08216724,0.,-0.00574
 779,0.,0.,-0.00038425,0.,0.,0.00895136,0.,0.,-0.03495260,0.,0.,0.03213
 328,-0.00484559,0.,0.00404625,0.00138170,0.,-0.01449964,-0.00986818,0.
 ,0.01665761,0.15562439,0.,0.17722645,-0.14229232,0.,-0.18343067,0.0171
 9548,0.,0.00101944,-0.04980383,0.,-0.01767466,0.01205844,0.,0.05880256
 ,-0.00319181,0.,-0.01066968,0.,0.,0.01479481,0.05767758,0.,0.02662891,
 -0.04629313,0.,-0.03466885,-0.01657809,0.,-0.00986232,-0.00669962,0.,-
 0.01153934,0.00762824,0.,0.00826037,0.,0.,-0.00619255,0.,0.,-0.0128816
 6,-0.00182633,0.,-0.01762823,-0.01341997,0.,0.01514540,0.03738490,0.,-
 0.01907555,-0.01618360,0.,0.00743271,-0.01212913,0.,-0.00084172,-0.017
 46875,0.,-0.00050178,0.31319119,0.,0.00261160,0.,0.,0.00518261,0.,0.,0
 .00675846,0.,0.,-0.11175774,-0.01065216,0.,0.01010544,0.00410154,0.,-0
 .00716716,-0.04213205,0.,0.09584030,0.47570439,0.,0.50174956,0.0035077
 7,0.,-0.00656912,0.00996212,0.,0.00099661,0.03311821,0.,-0.02163682,-0
 .26740971,0.,-0.42702173,0.22082161,0.,-0.00122173,0.,0.,-0.00311519,0
 .,0.,0.00405538,0.,0.,0.09720507,0.,0.,-0.09692353,0.00460473,0.,-0.00
 143146,-0.00319099,0.,0.00006169,0.02614880,0.,-0.07428192,-0.48179361
 ,0.,-0.60052815,0.45423106,0.,0.67617985,-0.14175448,0.,-0.24763023,-0
 .00887373,0.,1.73057310,0.19265306,0.,-0.05195692,-0.18204314,0.,0.239
 44397,0.,0.,-0.24201334,0.04306561,0.,-1.73547671,0.04291847,0.,1.7296
 6867,-0.03389433,0.,0.02689404,-0.01277060,0.,-0.04689381,0.04734779,0
 .,0.00183285,0.,0.,0.01015600,0.,0.,-0.02009583,-0.06615650,0.,0.00327
 213,0.02956487,0.,-0.01723099,0.02176981,0.,0.02279359,0.00924201,0.,0
 .01187607,0.00481507,0.,-0.00096323,-0.01450329,0.,-0.00207190,-0.0083
 2517,0.,0.00168511,0.,0.,-0.00974368,0.,0.,0.01509206,0.,0.,-0.0120971
 2,0.02896398,0.,-0.00593517,-0.01225329,0.,0.01161085,0.00748204,0.,-0
 .01153500,-0.01909464,0.,0.00045176,-0.02624626,0.,0.02206053,-0.00265
 440,0.,-0.03812703,0.01382043,0.,0.01689373,0.00877138,0.,-0.00509810,
 0.00630886,0.,0.00466830,0.,0.,0.00215706,0.,0.,-0.00698508,0.,0.,0.00
 506364,0.,0.,-0.00490391,0.00300064,0.,0.00756664,-0.00827312,0.,0.011
 42817,-0.00925209,0.,0.00270027,0.01025369,0.,0.00540756,0.00427088,0.
 ,-0.02710264,0.06233028,0.,0.30098155,-0.00196377,0.,-0.88148357,-0.05
 988327,0.,0.01432385,0.04983549,0.,-0.31380610,0.,0.,0.34040066,-0.022
 33081,0.,0.88102852,0.01675879,0.,-0.90333698,-0.00201384,0.,-0.002107
 83,0.01149165,0.,0.00403465,-0.02841022,0.,0.01678264,0.,0.,-0.0311433
 9,0.,-0.00000002,0.01030405,0.02777257,0.,-0.00880717,-0.03820431,0.,0
 .03147631,0.00679009,0.,-0.02897326,-0.00292896,0.,-0.00473777,0.00116
 281,0.,-0.00296155,0.01827084,0.,0.00435629,-0.02439423,0.,-0.00952766
 ,0.,0.,0.00468327,0.,0.00000001,0.00716024,-0.00000001,0.,-0.00061921,
 -0.00063675,0.,0.00855324,0.01154513,0.,-0.00706335,-0.01838534,-0.000
 00001,0.00624359,-0.00524777,0.00000001,-0.02892921,0.00249575,0.,-0.0
 0551450,-0.00260664,0.,0.00449895,0.00066154,0.,-0.00071468,0.00788958
 ,0.,0.01272473,-0.00844027,0.,0.00556959,0.,0.,-0.00013444,0.,0.,-0.00
 310355,0.,0.,-0.00169663,0.,0.,-0.00063501,-0.00284123,0.,0.00070896,-
 0.00442348,0.,-0.00210447,0.00966843,0.,0.00006053,0.00859079,0.,0.021
 19574,-0.01099450,0.,-0.01986080,0.00631276,0.,0.00252919,0.00919125,0
 .,-0.03306564,-0.00539134,0.,-0.00484466,0.00293794,0.,-0.00161511,0.,
 0.,0.00095377,-0.01462323,0.,0.03691062,-0.00580298,0.,-0.02476512,0.0
 0327103,0.,-0.00006348,0.01336553,0.,0.00276982,-0.01744657,0.,-0.0010
 1143,0.,0.,-0.00326003,0.,0.,0.00457082,0.00704305,0.,-0.00458225,-0.0
 0086454,0.,0.00442320,-0.00633828,0.,0.00227132,-0.00365397,0.,-0.0007
 3386,-0.00560635,0.,-0.00158737,0.00600407,0.,0.00207697,-0.00654093,0
 .,0.00073421,0.,0.,0.00238928,0.,0.,-0.00213881,0.,0.,0.00325440,-0.00
 432668,0.,0.00559202,0.00391821,0.,-0.00533466,0.00178834,0.,-0.007392
 91,-0.01336240,0.,-0.00016123,-0.00053851,0.,-0.00354925,-0.00530575,0
 .,0.01924379,-0.00519409,0.,-0.00191723,0.00979719,0.,0.01198255,0.001
 24113,0.,-0.00063685,0.,0.,0.00153209,0.,0.,0.00183944,0.,0.,-0.004239
 08,0.,0.,0.00150437,0.00271560,0.,-0.00485477,0.00759397,0.,-0.0112339
 9,0.00184363,0.,0.00528064,0.01360665,0.,0.00729676,-0.02575985,0.,0.0
 0351134,0.02344595,0.,0.09801839,-0.01460974,0.,-0.30169405,-0.0252653
 2,0.,0.01148992,0.02875262,0.,-0.09874429,0.,0.,0.09944857,0.00201658,
 0.,0.29755988,-0.00549568,0.,-0.30555574,0.00519578,0.,0.00106185,-0.0
 0611028,0.,0.00687330,-0.00836945,0.,-0.00020973,0.,0.,0.00195843,0.,0
 .,-0.00467920,0.01218603,0.,0.00219606,-0.00772208,0.,0.01260109,-0.00
 470869,0.,-0.02919820,-0.00140574,0.,0.00106673,0.00682414,0.,-0.00409
 468,0.00927357,0.,0.00519281,-0.05118942,0.,-0.00408358,0.,0.,-0.00742
 531,0.,0.,0.01045075,0.,0.,0.01814735,0.00066101,0.,0.00029362,0.00066
 347,0.,-0.00273776,-0.00546057,0.,0.01566865,-0.05168239,-0.00000001,-
 0.08724344,-0.00197068,0.,0.00099123,-0.00420115,0.,0.00070049,0.00001
 036,0.,-0.00494808,0.03649746,0.,0.05581848,-0.03033601,0.,0.00501922,
 0.,0.,0.00476261,0.,0.,-0.00752024,0.,0.,-0.01708919,0.,0.,0.01482760,
 -0.00025388,0.,0.00164448,0.00106437,0.,-0.00186742,0.00223411,0.,-0.0
 0126762,0.04951754,0.,0.07401890,-0.05256214,0.,-0.07252836,0.00065556
 ,0.,0.00025986,-0.00235128,0.,-0.01056230,-0.00375154,0.,0.00476162,-0
 .01924105,0.,-0.00109219,0.,0.,-0.00088811,-0.00335102,0.,0.01282661,0
 .00086197,0.,-0.01819536,0.00852350,0.,-0.00880192,0.04081913,0.,0.008
 82507,0.01992465,0.,0.00050727,0.,0.,0.00172021,0.,0.,-0.04131838,0.00
 048960,0.,0.00255683,-0.01980244,0.,-0.00030248,-0.19158705,0.,0.30652
 161,-0.00498512,0.,0.00417620,-0.02374427,0.,-0.01067012,-0.02947306,0
 .,0.18737065,0.04229778,0.,-0.00038512,0.,0.,0.00087000,0.,0.,0.032771
 25,0.,0.,-0.02091932,0.00658457,0.,-0.00821818,0.01940419,0.,0.0072813
 2,0.20990704,0.,-0.33548679,-0.18126547,0.,0.39881763,-0.00044240,0.,0
 .00221537,0.00591774,0.,0.00433411,-0.03979427,0.,0.02352925,0.0159046
 7,0.,-0.05463033,0.01841424,0.,0.00071018,0.,0.,-0.00060989,0.,0.,0.00
 631963,0.,0.,-0.01233679,0.,0.,0.00591684,-0.00137187,0.,0.00339701,-0
 .00522535,0.,-0.00161006,-0.01834311,0.,0.02671083,0.00038873,0.,-0.06
 239398,0.02455160,0.,0.03389617,0.00337760,-0.00000002,0.00000817,0.00
 085710,0.,-0.00499047,0.00101362,0.00000002,0.00889162,0.15053588,0.00
 000002,-0.00175772,0.,-0.00000002,-0.02008063,0.00154684,0.,0.00678331
 ,0.02043833,0.,-0.01872861,0.00072406,0.,-0.01155275,-0.14235691,0.,-0
 .02336636,0.13552558,0.,0.00170817,0.,0.,0.01779296,0.,0.,-0.01703888,
 -0.00105770,0.,-0.00296535,-0.02308604,0.,0.01139448,0.02957850,0.,-0.
 00111819,-0.00428063,0.,0.00264401,-0.01447168,0.,0.00018320,0.0139627
 1,0.,-0.00034679,0.00222913,0.,0.00019929,0.,0.,0.00596784,0.,0.,-0.00
 528328,0.,0.,0.00099268,-0.00027687,0.,-0.00105213,-0.01045788,0.,-0.0
 0114410,0.01230243,0.,0.00123875,-0.01896729,0.00000001,-0.04311516,-0
 .00083464,0.,-0.00084000,0.00527909,0.,0.00119802,-0.00785549,0.,-0.00
 508798,0.00256047,0.,0.01739963,0.00085053,0.,-0.00015791,0.,0.,-0.001
 92245,0.,0.,0.00282102,0.,0.,-0.00187651,0.,0.,0.00113582,-0.00106939,
 0.,0.00222462,0.00421399,0.,0.00169498,-0.00696180,0.,-0.00854971,0.01
 648687,0.,0.04407262,-0.01266967,0.,-0.03944253,0.02506413,0.,0.007411
 90,-0.00010247,0.,-0.08706704,-0.02247640,0.,0.01197888,0.12771723,0.,
 -0.00683004,0.,0.,-0.01519893,-0.00104541,0.,0.08387332,0.00603873,0.,
 -0.10476489,0.00297980,0.,-0.01429284,-0.10448419,0.,0.00457910,0.0689
 2206,0.,-0.00169060,0.,0.,0.02511946,0.,0.,-0.03230778,0.00197396,0.,0
 .00252691,-0.02867743,0.,0.01738986,0.02820955,0.,-0.00455214,-0.00578
 421,0.,0.00419850,-0.01839867,0.,-0.01006983,0.05572757,0.,-0.01207337
 ,-0.04086174,0.,0.00200042,0.,0.,-0.00249639,0.,0.,0.00503016,0.,0.,-0
 .00679190,-0.00039652,0.,-0.00275672,-0.00083135,0.,0.00389920,-0.0127
 7334,0.,-0.00288961,0.01456818,0.,-0.02876096,0.00021666,0.,-0.0017820
 7,0.01764207,0.,0.00049741,-0.02314523,0.,0.01056729,0.00931705,0.,-0.
 00056697,-0.00403059,0.,-0.00089167,0.,0.,-0.00059409,0.,0.,0.00384875
 ,0.,0.,0.00225773,0.,0.,-0.00462075,-0.00042957,0.,0.00342350,0.011491
 18,0.,-0.00039743,-0.00572246,0.,-0.01247502,0.00337651,0.,0.03050808,
 -0.00871565,0.,-0.02105918,0.17264481,0.,0.05865859,0.16291995,0.,-0.8
 8263080,-0.15724663,0.,-0.06202206,0.16275194,0.,-0.05691169,0.,0.,0.0
 2513020,-0.19223286,0.,0.88745381,0.12310379,0.,-0.91949400,0.02432680
 ,0.,-0.06713149,-0.00212307,0.,0.05684774,-0.03643387,0.,0.00001962,0.
 ,0.,0.02958639,0.,0.,-0.02801184,0.05755333,0.,-0.05641018,-0.07756085
 ,0.,0.06026299,0.02677495,0.,-0.03013574,-0.05551477,0.,0.00603248,-0.
 00471412,0.,-0.01820105,0.03312416,0.,0.00236751,0.03880317,0.,0.00721
 115,0.,0.,0.00076782,0.,0.,-0.00068326,0.,0.,-0.02917724,-0.01599728,0
 .,0.04178258,0.01095330,0.,-0.02061718,-0.00643669,0.,0.01687872,0.078
 68159,0.,0.08707475,0.01578979,0.,-0.03979889,0.00133188,0.,0.03048239
 ,-0.01889402,0.,-0.00913498,-0.01169842,0.,-0.06720090,0.01347076,0.,-
 0.00897767,0.,0.,0.00142727,0.,0.,-0.00091091,0.,0.,0.02188153,0.,0.,-
 0.01342025,-0.01224314,0.,0.00980458,0.00552581,0.,-0.00760559,-0.0100
 5450,0.,0.00940422,-0.06888054,0.,-0.12511887,0.08565237,0.,0.11351561
 ,0.03311840,0.,0.00691920,-0.00007943,0.,-0.10605689,-0.01945260,0.,0.
 00560017,0.01096383,0.,-0.00997885,0.,0.,0.00491778,-0.00772531,0.,0.1
 0489127,0.00676268,0.,-0.11370481,-0.00049601,0.,-0.00752347,0.0059816
 1,0.,0.00543370,-0.00554605,0.,0.00095223,0.,0.,0.00514904,0.,0.,-0.01
 813140,0.00738113,0.,-0.00452893,-0.01586358,0.,0.00976835,-0.01356241
 ,0.,0.00233893,-0.00957022,0.,-0.00054766,-0.00659660,0.,0.00257449,0.
 01323441,0.,0.00617202,0.22509417,0.,0.00154395,0.,0.,-0.00031350,0.,0
 .,0.01545722,0.,0.,-0.19536190,-0.00024459,0.,0.00336722,0.00112612,0.
 ,0.00282673,0.03408641,0.,-0.01878855,0.61723260,0.,0.92499318,-0.0035
 9957,0.,0.00255039,0.00910377,0.,-0.00704554,-0.01317398,0.,0.01587280
 ,-0.22216175,0.,-0.65220054,0.22983152,0.,0.00056348,0.,0.,0.00022553,
 0.,0.,-0.00342709,0.,0.,0.17867423,0.,0.,-0.17603618,0.00066817,0.,0.0
 0232731,0.00237462,0.,-0.00378150,-0.01843423,0.,0.01121019,-0.6254314
 5,0.,-0.91239857,0.64082288,0.,0.90264253,-1.13453267,0.,-1.21086603,-
 0.02034758,0.,5.85715524,1.11049612,0.,0.03802964,-1.19628397,0.,1.218
 22716,0.,0.,-1.20302572,0.06070211,0.,-5.85189920,-0.06963767,0.,5.849
 47899,-0.03573377,0.,0.00708008,0.07486421,0.,0.00472571,-0.05288116,0
 .,-0.00161371,0.,0.,-0.01263254,0.,0.,0.01513443,-0.02374282,0.,0.0170
 0512,0.03101170,0.,-0.01079855,0.00340934,0.,-0.00566859,0.02078504,0.
 ,-0.01625829,-0.01016737,0.,0.00534598,0.01471434,0.,0.00944238,-0.027
 41326,0.,0.00139655,0.,0.,0.00061057,0.,0.,-0.00900593,0.,0.,0.0125111
 1,-0.03113979,0.,-0.00022474,-0.00124799,0.,0.00134521,-0.00957834,0.,
 0.01130262,-0.00175539,0.,-0.02180088,0.03898527,0.,-0.00850386,0.0210
 9103,0.,-0.00113610,-0.00096363,0.,-0.02012061,0.00208126,0.,0.0437214
 9,-0.06119395,0.,-0.00714395,0.,0.,-0.00317947,0.,0.,0.00811775,0.,0.,
 -0.00551229,0.,0.,0.00771793,0.01452808,0.,-0.02203644,0.00184431,0.,0
 .01187357,-0.00563678,0.,-0.01184062,0.00322532,0.,0.00937777,-0.01396
 094,0.,0.01262566\\@


 Once you get people laughing, they're
 listening and you can tell them almost anything.
                                 -- Herb Gardner
 Job cpu time:       0 days 15 hours 18 minutes 53.2 seconds.
 Elapsed time:       0 days 15 hours 19 minutes 29.1 seconds.
 File lengths (MBytes):  RWF=   7286 Int=      0 D2E=      0 Chk=     52 Scr=      1
 Normal termination of Gaussian 16 at Sat Jun 12 01:31:00 2021.
