title                                                                   
Freq      RMP2-FC                                                     Gen                 
Number of atoms                            I                4
Info1-9                                    I   N=           9
         144         133        1002           0           0         100
           6           2           1
Full Title                                 C   N=           1
title       
Route                                      C   N=           5
#p opt=(z-matrix,tight) mp2/gen Pseudo=read freq=anharm     
Charge                                     I               -1
Multiplicity                               I                1
Number of electrons                        I               36
Number of alpha electrons                  I               18
Number of beta electrons                   I               18
Number of basis functions                  I              191
Number of independent functions            I              147
Number of point charges in /Mol/           I                0
Number of translation vectors              I                0
Atomic numbers                             I   N=           4
           8           1           1          53
Nuclear charges                            R   N=           4
  8.00000000E+00  1.00000000E+00  1.00000000E+00  2.50000000E+01
Current cartesian coordinates              R   N=          12
 -5.61222694E+00 -1.63951188E-01  3.70338795E-07 -3.78636816E+00 -4.79479636E-01
 -3.20448306E-06 -5.63879765E+00  1.65257085E+00 -6.37214245E-07  1.02496191E+00
  2.61355276E-03  3.43286280E-22
Number of symbols in /Mol/                 I                0
Force Field                                I                0
Atom Types                                 C   N=           4
                                                
Int Atom Types                             I   N=           4
           0           0           0           0
MM charges                                 R   N=           4
  0.00000000E+00  0.00000000E+00  0.00000000E+00  0.00000000E+00
Integer atomic weights                     I   N=           4
          16           1           1         127
Real atomic weights                        R   N=           4
  1.59949146E+01  1.00782504E+00  1.00782504E+00  1.26900400E+02
Atom fragment info                         I   N=           4
           0           0           0           0
Atom residue num                           I   N=           4
           0           0           0           0
Nuclear spins                              I   N=           4
           0           1           1           5
Nuclear ZEff                               R   N=           4
 -5.60000000E+00 -1.00000000E+00 -1.00000000E+00 -5.83000000E+03
Nuclear ZNuc                               R   N=           4
  8.00000000E+00  1.00000000E+00  1.00000000E+00  5.30000000E+01
Nuclear QMom                               R   N=           4
  0.00000000E+00  0.00000000E+00  0.00000000E+00 -7.10000000E+01
Nuclear GFac                               R   N=           4
  0.00000000E+00  2.79284600E+00  2.79284600E+00  2.81328000E+00
MicOpt                                     I   N=           4
          -1          -1          -1          -1
Number of residues                         I                0
Number of secondary structures             I                0
SymInf integers                            I   N=          26
           1           1           1           1           1           0
           0           0           0           0           0           0
           0           0           0           0           0           0
           0           0           0           0           0           0
           0           0
RotTr to input orientation                 R   N=          12
  1.70286992E-01  2.05894109E-06  9.85394510E-01  9.85394510E-01  5.84777148E-07
 -1.70286992E-01 -9.26847077E-07  1.00000000E+00 -1.92928931E-06  1.11724585E+00
  1.12807808E-05  5.50233886E+00
Number of contracted shells                I               65
Number of primitive shells                 I              119
Pure/Cartesian d shells                    I                0
Pure/Cartesian f shells                    I                0
Highest angular momentum                   I                3
Largest degree of contraction              I                9
Shell types                                I   N=          65
           0           0           0           0           0           1
           1           1           1          -2          -2          -2
          -3          -3           0           0           0           0
           0           0           0           1           1           1
           1           1           1          -2          -2          -2
          -2           0           0           0           0           0
           0           0           1           1           1           1
           1           1          -2          -2          -2          -2
           0           0           0           0           0           0
           1           1           1           1           1          -2
          -2          -2          -2          -3          -3
Number of primitives per shell             I   N=          65
           7           6           1           1           1           3
           1           1           1           1           1           1
           1           1           3           1           1           1
           1           1           1           1           1           1
           1           1           1           1           1           1
           1           3           1           1           1           1
           1           1           1           1           1           1
           1           1           1           1           1           1
           9           8           1           1           1           1
           8           8           1           1           1           9
           1           1           1           1           1
Shell to atom map                          I   N=          65
           1           1           1           1           1           1
           1           1           1           1           1           1
           1           1           2           2           2           2
           2           2           2           2           2           2
           2           2           2           2           2           2
           2           3           3           3           3           3
           3           3           3           3           3           3
           3           3           3           3           3           3
           4           4           4           4           4           4
           4           4           4           4           4           4
           4           4           4           4           4
Primitive exponents                        R   N=         119
  1.53300000E+04  2.29900000E+03  5.22400000E+02  1.47300000E+02  4.75500000E+01
  1.67600000E+01  6.20700000E+00  5.22400000E+02  1.47300000E+02  4.75500000E+01
  1.67600000E+01  6.20700000E+00  6.88200000E-01  1.75200000E+00  2.38400000E-01
  7.37600000E-02  3.44600000E+01  7.74900000E+00  2.28000000E+00  7.15600000E-01
  2.14000000E-01  5.97400000E-02  2.31400000E+00  6.45000000E-01  2.14000000E-01
  1.42800000E+00  5.00000000E-01  3.38700000E+01  5.09500000E+00  1.15900000E+00
  3.25800000E-01  1.02700000E-01  2.52600000E-02  3.25800000E-01  1.02700000E-01
  2.52600000E-02  1.40700000E+00  3.88000000E-01  1.02000000E-01  1.40700000E+00
  3.88000000E-01  1.02000000E-01  1.05700000E+00  2.47000000E-01  1.05700000E+00
  2.47000000E-01  3.38700000E+01  5.09500000E+00  1.15900000E+00  3.25800000E-01
  1.02700000E-01  2.52600000E-02  3.25800000E-01  1.02700000E-01  2.52600000E-02
  1.40700000E+00  3.88000000E-01  1.02000000E-01  1.40700000E+00  3.88000000E-01
  1.02000000E-01  1.05700000E+00  2.47000000E-01  1.05700000E+00  2.47000000E-01
  5.54650000E+03  8.38214000E+02  1.82187000E+02  3.12123000E+01  1.95314000E+01
  8.24099000E+00  2.19455000E+00  1.10911000E+00  8.10610000E-02  5.54650000E+03
  8.38214000E+02  3.12123000E+01  1.95314000E+01  8.24099000E+00  2.19455000E+00
  1.10911000E+00  8.10610000E-02  3.74641000E-01  1.77080000E-01  1.00100000E-01
  4.12000000E-02  1.88988000E+02  2.12868000E+01  1.00396000E+01  3.45180000E+00
  1.97456000E+00  1.02420000E+00  4.49437000E-01  7.34810000E-02  1.88988000E+02
  1.00396000E+01  3.45180000E+00  1.97456000E+00  1.02420000E+00  4.49437000E-01
  1.86648000E-01  7.34810000E-02  5.98100000E-01  9.61800000E-02  3.59000000E-02
  1.32662000E+02  3.76054000E+01  1.03891000E+01  6.49017000E+00  3.45451000E+00
  1.84413000E+00  9.62478000E-01  4.72853000E-01  1.93200000E-01  4.72853000E-01
  1.93200000E-01  7.82000000E-02  4.06400000E-01  1.84800000E-01
Contraction coefficients                   R   N=         119
  5.19808943E-04  4.02025621E-03  2.07128267E-02  8.10105536E-02  2.35962985E-01
  4.42653446E-01  3.57064423E-01 -4.42115008E-05 -1.22591041E-03 -1.05517725E-02
 -6.74452633E-02 -1.71198607E-01  1.07329856E+00  1.00000000E+00  1.00000000E+00
  1.00000000E+00  4.11634896E-02  2.57762836E-01  8.02419274E-01  1.00000000E+00
  1.00000000E+00  1.00000000E+00  1.00000000E+00  1.00000000E+00  1.00000000E+00
  1.00000000E+00  1.00000000E+00  2.54948632E-02  1.90362766E-01  8.52162022E-01
  1.00000000E+00  1.00000000E+00  1.00000000E+00  1.00000000E+00  1.00000000E+00
  1.00000000E+00  1.00000000E+00  1.00000000E+00  1.00000000E+00  1.00000000E+00
  1.00000000E+00  1.00000000E+00  1.00000000E+00  1.00000000E+00  1.00000000E+00
  1.00000000E+00  2.54948632E-02  1.90362766E-01  8.52162022E-01  1.00000000E+00
  1.00000000E+00  1.00000000E+00  1.00000000E+00  1.00000000E+00  1.00000000E+00
  1.00000000E+00  1.00000000E+00  1.00000000E+00  1.00000000E+00  1.00000000E+00
  1.00000000E+00  1.00000000E+00  1.00000000E+00  1.00000000E+00  1.00000000E+00
  1.58603022E-04  1.00211458E-03  2.83966410E-03 -4.40310212E-02  2.38198152E-01
 -7.63568980E-01  8.96516870E-01  4.68371203E-01  2.16251781E-03 -2.17177846E-05
 -2.59237305E-04 -1.50376554E-02  2.42214079E-02  6.99888661E-02 -5.50491335E-01
 -5.69654432E-01  3.76065139E-01  1.00000000E+00  1.00000000E+00  1.00000000E+00
  1.00000000E+00  5.85232173E-04  3.69335916E-02 -2.35399435E-01  3.41625365E-01
  5.34991615E-01  2.65244797E-01  2.54463150E-02  3.82802808E-04 -6.76097015E-05
  8.33123161E-03 -4.66496478E-02 -5.27406452E-02 -2.91398344E-02  3.65650039E-01
  5.48502805E-01  2.34644635E-01  1.00000000E+00  1.00000000E+00  1.00000000E+00
  5.72000072E-04  4.40200055E-03 -4.09220051E-02  9.96610125E-02  3.22663040E-01
  4.00343050E-01  2.68306034E-01  8.48470106E-02  7.63200096E-03  1.00000000E+00
  1.00000000E+00  1.00000000E+00  1.00000000E+00  1.00000000E+00
Coordinates of each shell                  R   N=         195
 -5.61222694E+00 -1.63951188E-01  3.70338795E-07 -5.61222694E+00 -1.63951188E-01
  3.70338795E-07 -5.61222694E+00 -1.63951188E-01  3.70338795E-07 -5.61222694E+00
 -1.63951188E-01  3.70338795E-07 -5.61222694E+00 -1.63951188E-01  3.70338795E-07
 -5.61222694E+00 -1.63951188E-01  3.70338795E-07 -5.61222694E+00 -1.63951188E-01
  3.70338795E-07 -5.61222694E+00 -1.63951188E-01  3.70338795E-07 -5.61222694E+00
 -1.63951188E-01  3.70338795E-07 -5.61222694E+00 -1.63951188E-01  3.70338795E-07
 -5.61222694E+00 -1.63951188E-01  3.70338795E-07 -5.61222694E+00 -1.63951188E-01
  3.70338795E-07 -5.61222694E+00 -1.63951188E-01  3.70338795E-07 -5.61222694E+00
 -1.63951188E-01  3.70338795E-07 -3.78636816E+00 -4.79479636E-01 -3.20448306E-06
 -3.78636816E+00 -4.79479636E-01 -3.20448306E-06 -3.78636816E+00 -4.79479636E-01
 -3.20448306E-06 -3.78636816E+00 -4.79479636E-01 -3.20448306E-06 -3.78636816E+00
 -4.79479636E-01 -3.20448306E-06 -3.78636816E+00 -4.79479636E-01 -3.20448306E-06
 -3.78636816E+00 -4.79479636E-01 -3.20448306E-06 -3.78636816E+00 -4.79479636E-01
 -3.20448306E-06 -3.78636816E+00 -4.79479636E-01 -3.20448306E-06 -3.78636816E+00
 -4.79479636E-01 -3.20448306E-06 -3.78636816E+00 -4.79479636E-01 -3.20448306E-06
 -3.78636816E+00 -4.79479636E-01 -3.20448306E-06 -3.78636816E+00 -4.79479636E-01
 -3.20448306E-06 -3.78636816E+00 -4.79479636E-01 -3.20448306E-06 -3.78636816E+00
 -4.79479636E-01 -3.20448306E-06 -3.78636816E+00 -4.79479636E-01 -3.20448306E-06
 -3.78636816E+00 -4.79479636E-01 -3.20448306E-06 -5.63879765E+00  1.65257085E+00
 -6.37214245E-07 -5.63879765E+00  1.65257085E+00 -6.37214245E-07 -5.63879765E+00
  1.65257085E+00 -6.37214245E-07 -5.63879765E+00  1.65257085E+00 -6.37214245E-07
 -5.63879765E+00  1.65257085E+00 -6.37214245E-07 -5.63879765E+00  1.65257085E+00
 -6.37214245E-07 -5.63879765E+00  1.65257085E+00 -6.37214245E-07 -5.63879765E+00
  1.65257085E+00 -6.37214245E-07 -5.63879765E+00  1.65257085E+00 -6.37214245E-07
 -5.63879765E+00  1.65257085E+00 -6.37214245E-07 -5.63879765E+00  1.65257085E+00
 -6.37214245E-07 -5.63879765E+00  1.65257085E+00 -6.37214245E-07 -5.63879765E+00
  1.65257085E+00 -6.37214245E-07 -5.63879765E+00  1.65257085E+00 -6.37214245E-07
 -5.63879765E+00  1.65257085E+00 -6.37214245E-07 -5.63879765E+00  1.65257085E+00
 -6.37214245E-07 -5.63879765E+00  1.65257085E+00 -6.37214245E-07  1.02496191E+00
  2.61355276E-03  0.00000000E+00  1.02496191E+00  2.61355276E-03  0.00000000E+00
  1.02496191E+00  2.61355276E-03  0.00000000E+00  1.02496191E+00  2.61355276E-03
  0.00000000E+00  1.02496191E+00  2.61355276E-03  0.00000000E+00  1.02496191E+00
  2.61355276E-03  0.00000000E+00  1.02496191E+00  2.61355276E-03  0.00000000E+00
  1.02496191E+00  2.61355276E-03  0.00000000E+00  1.02496191E+00  2.61355276E-03
  0.00000000E+00  1.02496191E+00  2.61355276E-03  0.00000000E+00  1.02496191E+00
  2.61355276E-03  0.00000000E+00  1.02496191E+00  2.61355276E-03  0.00000000E+00
  1.02496191E+00  2.61355276E-03  0.00000000E+00  1.02496191E+00  2.61355276E-03
  0.00000000E+00  1.02496191E+00  2.61355276E-03  0.00000000E+00  1.02496191E+00
  2.61355276E-03  0.00000000E+00  1.02496191E+00  2.61355276E-03  0.00000000E+00
Num ILSW                                   I              100
ILSW                                       I   N=         100
           0           0           0           1           2           0
           0           0           0           0           0          -1
           5           0           0           0           2           0
           0           0           0           0           1           0
           1           0           0           0           0           0
           0           0      100000           0          -1           0
           0           0           0           0           0           0
           0           0           0           1           1           0
           0 -2000000000           1           0           0           0
           0           0           4          52           0           0
           0           0           0           0           0           0
           0           0           0           4           4           1
           0           0           0           0           0           0
           0           0           0           0           0           0
           0           0           0           0           0           0
           0           0           0           0           0           0
           0           0           0           0
Num RLSW                                   I               52
RLSW                                       R   N=          52
  1.00000000E+00  1.00000000E+00  1.00000000E+00  1.00000000E+00  1.00000000E+00
  0.00000000E+00  0.00000000E+00  1.00000000E+00  0.00000000E+00  0.00000000E+00
  0.00000000E+00  0.00000000E+00  1.00000000E+00  0.00000000E+00  0.00000000E+00
  0.00000000E+00  0.00000000E+00  1.00000000E+00  0.00000000E+00  0.00000000E+00
  0.00000000E+00  0.00000000E+00  1.00000000E+00  0.00000000E+00  0.00000000E+00
  0.00000000E+00  0.00000000E+00  1.00000000E+00  0.00000000E+00  0.00000000E+00
  0.00000000E+00  0.00000000E+00  1.00000000E+00  0.00000000E+00  0.00000000E+00
  0.00000000E+00  0.00000000E+00  0.00000000E+00  1.00000000E+00  1.00000000E+00
  0.00000000E+00  1.00000000E+00  0.00000000E+00  0.00000000E+00  0.00000000E+00
  0.00000000E+00  0.00000000E+00  0.00000000E+00  0.00000000E+00  0.00000000E+00
  0.00000000E+00  0.00000000E+00
ECP-MxAtEC                                 I           250000
ECP-MaxLECP                                I               10
ECP-MaxAtL                                 I          2250000
ECP-MxTECP                                 I         11250000
ECP-LenNCZ                                 I               16
ECP-KFirst                                 I   N=          40
           0           0           0           1           0           0
           0           2           0           0           0           5
           0           0           0           9           0           0
           0          13           0           0           0           0
           0           0           0           0           0           0
           0           0           0           0           0           0
           0           0           0           0
ECP-KLast                                  I   N=          40
           0           0           0           1           0           0
           0           4           0           0           0           8
           0           0           0          12           0           0
           0          16           0           0           0           0
           0           0           0           0           0           0
           0           0           0           0           0           0
           0           0           0           0
ECP-LMax                                   I   N=           4
           0           0           0           4
ECP-LPSkip                                 I   N=           4
           1           1           1           0
ECP-RNFroz                                 R   N=           4
  0.00000000E+00  0.00000000E+00  0.00000000E+00  2.80000000E+01
ECP-NLP                                    I   N=          16
           2           2           2           2           2           2
           2           2           2           2           2           2
           2           2           2           2
ECP-CLP1                                   R   N=          16
  0.00000000E+00  4.99896490E+01  2.81006556E+02  6.14167390E+01  6.74162390E+01
  1.34807696E+02  1.45665480E+01  2.89684220E+01  3.55387560E+01  5.33397590E+01
  9.71646600E+00  1.49775000E+01 -2.01766180E+01 -2.60880770E+01 -2.20434000E-01
 -2.21646000E-01
ECP-CLP2                                   R   N=          16
  0.00000000E+00  0.00000000E+00  0.00000000E+00  0.00000000E+00  0.00000000E+00
  0.00000000E+00  0.00000000E+00  0.00000000E+00  0.00000000E+00  0.00000000E+00
  0.00000000E+00  0.00000000E+00  0.00000000E+00  0.00000000E+00  0.00000000E+00
  0.00000000E+00
ECP-ZLP                                    R   N=          16
  1.00000000E+00  4.00333760E+01  1.73005760E+01  8.85172000E+00  1.57201410E+01
  1.52082220E+01  8.29418600E+00  7.75394900E+00  1.38177510E+01  1.35878050E+01
  6.94763000E+00  6.96009900E+00  1.85229500E+01  1.82510350E+01  7.55790100E+00
  7.59740400E+00
MxBond                                     I                2
NBond                                      I   N=           4
           2           1           1           0
IBond                                      I   N=           8
           2           3           1           0           1           0
           0           0
RBond                                      R   N=           8
  1.00000000E+00  1.00000000E+00  1.00000000E+00  0.00000000E+00  1.00000000E+00
  0.00000000E+00  0.00000000E+00  0.00000000E+00
Virial Ratio                               R      2.984665561383011E+00
SCF Energy                                 R     -3.708177432334380E+02
MP2 Energy                                 R     -3.713142998982647E+02
Total Energy                               R     -3.713142998982647E+02
Post-SCF wavefunction norm                 R      1.520676917013135E+00
RMS Force                                  R      2.714587905214674E-06
RMS Density                                R      2.067417660903799E-09
NImag                                      I                0
Job Status                                 I                1
Nuclear derivative order                   I                3
External E-field                           R   N=          35
  0.00000000E+00  0.00000000E+00  0.00000000E+00  0.00000000E+00  0.00000000E+00
  0.00000000E+00  0.00000000E+00  0.00000000E+00  0.00000000E+00  0.00000000E+00
  0.00000000E+00  0.00000000E+00  0.00000000E+00  0.00000000E+00  0.00000000E+00
  0.00000000E+00  0.00000000E+00  0.00000000E+00  0.00000000E+00  0.00000000E+00
  0.00000000E+00  0.00000000E+00  0.00000000E+00  0.00000000E+00  0.00000000E+00
  0.00000000E+00  0.00000000E+00  0.00000000E+00  0.00000000E+00  0.00000000E+00
  0.00000000E+00  0.00000000E+00  0.00000000E+00  0.00000000E+00  0.00000000E+00
IOpCl                                      I                0
IROHF                                      I                0
Alpha Orbital Energies                     R   N=         147
 -2.04016994E+01 -7.46796180E+00 -5.29348254E+00 -5.29328752E+00 -5.29320913E+00
 -2.02094025E+00 -2.02080402E+00 -2.02071537E+00 -2.02051616E+00 -2.02051100E+00
 -1.18750720E+00 -6.29260912E-01 -5.41269961E-01 -4.32075632E-01 -3.47427733E-01
 -1.48379531E-01 -1.43530985E-01 -1.42977584E-01  1.36741973E-01  1.67217403E-01
  2.31629162E-01  2.44638450E-01  2.55343430E-01  2.70861751E-01  2.87009120E-01
  2.92008640E-01  3.15834370E-01  3.31861324E-01  3.69904333E-01  3.70765507E-01
  3.76169236E-01  3.93805957E-01  4.08193272E-01  4.23929890E-01  4.42548720E-01
  4.85209216E-01  5.39934361E-01  5.40998547E-01  5.62854435E-01  6.01224446E-01
  6.58142073E-01  7.04960320E-01  7.77858546E-01  7.78090343E-01  7.79586867E-01
  7.97663407E-01  7.97682391E-01  7.99436529E-01  8.02123467E-01  8.32660575E-01
  8.50011877E-01  8.52897311E-01  8.67811472E-01  8.73991575E-01  8.82738403E-01
  8.86102436E-01  9.07364725E-01  9.10419425E-01  9.45330986E-01  9.64950204E-01
  9.74310075E-01  1.06744601E+00  1.08776526E+00  1.10146071E+00  1.10203639E+00
  1.12651566E+00  1.15189116E+00  1.15865528E+00  1.18150196E+00  1.20059630E+00
  1.30809148E+00  1.36371827E+00  1.37648940E+00  1.40910229E+00  1.46728277E+00
  1.50040366E+00  1.57211378E+00  1.67883156E+00  1.72110234E+00  1.73748292E+00
  1.75184020E+00  1.75227904E+00  1.76849769E+00  1.79872377E+00  1.80558813E+00
  1.84137331E+00  1.86989646E+00  1.89660577E+00  2.00451853E+00  2.04775852E+00
  2.05549313E+00  2.07522418E+00  2.10771742E+00  2.11828360E+00  2.16426434E+00
  2.28262025E+00  2.43903375E+00  2.49984511E+00  2.53678948E+00  2.56781968E+00
  2.63550650E+00  2.63810974E+00  2.66397727E+00  2.80965992E+00  2.87476197E+00
  2.89297089E+00  2.98779826E+00  3.03653424E+00  3.07009132E+00  3.24484758E+00
  3.26021596E+00  3.75456618E+00  3.87090987E+00  4.17980869E+00  4.21186858E+00
  4.30917279E+00  4.32860327E+00  4.41049579E+00  4.45634926E+00  4.55006995E+00
  4.57745764E+00  4.60317064E+00  4.75874747E+00  4.95696386E+00  5.11485080E+00
  5.29286419E+00  5.39117123E+00  5.43870056E+00  5.50731373E+00  5.68941304E+00
  5.80664526E+00  6.38829180E+00  6.68289514E+00  6.88790792E+00  7.12727739E+00
  7.28173261E+00  7.43433999E+00  7.43579624E+00  7.48498528E+00  7.55141221E+00
  7.55988112E+00  7.81072695E+00  8.04251838E+00  8.14102683E+00  8.98663567E+00
  1.63156594E+01  5.92151602E+01
Alpha MO coefficients                      R   N=       28077
  9.76658077E-01 -9.24368536E-03  4.36412012E-02  1.63402895E-04  6.56049720E-04
  1.22607654E-03  1.21622960E-03 -3.77006806E-09 -1.16744679E-03 -1.02485717E-03
  3.81760818E-09 -8.62293429E-05 -3.44179251E-04  1.23461794E-09  2.04781378E-04
 -5.39714511E-05 -7.18616910E-10 -6.45092935E-05 -2.32642594E-10  5.61224874E-12
 -1.93208035E-05 -1.27336931E-05  5.09177863E-04  1.78071345E-09  3.19635292E-11
  1.80297745E-04  1.63005483E-04  7.09888083E-05  5.59419608E-10 -2.60443056E-10
  1.36213335E-05  8.17310698E-05  6.75822461E-11 -1.45096850E-05  7.20950729E-06
 -9.28782160E-11  1.12082458E-10  2.58263572E-05 -2.55694029E-05 -5.93897094E-10
  9.49659802E-05  8.55846010E-05  3.99782826E-10 -2.47763032E-10 -9.58740332E-05
  1.80476357E-04  3.95233051E-04  5.97733672E-04  4.22232778E-04  2.65232247E-05
  5.97733672E-04  4.22232778E-04  2.65232247E-05 -7.73883085E-05  2.37818824E-05
  1.73071997E-10 -6.14083213E-04  3.76869541E-05  7.39648621E-10  8.98602025E-04
  3.89040061E-05 -6.39626030E-10 -7.73883085E-05  2.37818824E-05  1.73072407E-10
 -6.14083213E-04  3.76869541E-05  7.39648144E-10  8.98602025E-04  3.89040061E-05
 -6.39624930E-10  2.37686602E-05  1.60429723E-10 -6.32846756E-13 -5.36239975E-05
 -5.00258666E-06 -2.56747363E-04 -5.41382232E-10 -1.47235790E-11  4.37138081E-04
 -9.15440875E-06  2.37686602E-05  1.60429224E-10 -6.32973200E-13 -5.36239975E-05
 -5.00258666E-06 -2.56747363E-04 -5.41382709E-10 -1.47233461E-11  4.37138081E-04
 -9.15440875E-06  5.01393199E-04  8.90939492E-04  1.13445157E-04  2.31417760E-05
  8.90939492E-04  1.13445157E-04  2.31417760E-05  5.58373885E-06 -1.11557119E-04
  5.12951634E-11 -1.68765609E-07 -5.27580412E-04  4.42963490E-10 -6.11367612E-05
 -1.14976206E-04  1.32797011E-10  5.58373885E-06 -1.11557119E-04  5.12950477E-11
 -1.68765609E-07 -5.27580412E-04  4.42963455E-10 -6.11367612E-05 -1.14976206E-04
  1.32796883E-10  2.24857462E-05 -6.20598031E-12  6.43902644E-11  5.53634958E-05
 -1.66587833E-05 -9.82146527E-05 -1.21911204E-11 -3.05963651E-10 -1.81178771E-04
  1.63691454E-05  2.24857462E-05 -6.20598057E-12  6.43902009E-11  5.53634958E-05
 -1.66587833E-05 -9.82146527E-05 -1.21910953E-11 -3.05963638E-10 -1.81178771E-04
  1.63691454E-05 -3.58317123E-06  1.35948110E-05  1.25978024E-04  6.39647120E-04
 -1.74343467E-03 -4.31765003E-04  6.03599995E-05 -3.23140608E-06 -2.05589659E-11
  2.57587018E-04 -3.71741705E-05 -3.13747076E-10 -1.88961235E-04  1.27800463E-06
 -8.06024046E-12  1.23029334E-03  2.35775002E-04  1.98648329E-09  1.23524930E-04
  1.55095504E-05  2.31545160E-10  2.68465442E-06 -4.70203961E-11 -9.34251735E-12
 -3.23396468E-06 -5.64469183E-06 -3.77297501E-05  3.26466729E-10  5.47055961E-11
  5.66448577E-05  3.77386153E-05  2.52210229E-04 -1.12916166E-09 -1.49639649E-10
 -4.07783166E-04 -1.34202535E-04  1.73162661E-04 -1.20472347E-09 -1.81317114E-10
 -3.08970289E-04 -1.27389836E-04  1.14996269E-10 -2.16021119E-05  5.33828879E-06
 -1.32037789E-10 -8.52042961E-11  2.10765694E-05 -1.76685270E-05 -7.80029971E-10
 -1.08980135E-04 -3.60428072E-05  9.53660988E-10  3.49170428E-10  1.35766491E-04
  1.30497174E-04  2.96696397E-06  6.05823223E-06  7.61630673E-07 -4.83794988E-05
 -3.32388373E-05 -2.37797632E-06 -5.91459604E-07  5.47719163E-12 -1.86640084E-05
  8.61674244E-06  1.35034253E-11 -8.94486550E-05  5.96326039E-05 -1.13936869E-10
  2.84908322E-05  6.87945912E-05  1.39323786E-10 -3.09171682E-07  1.39121441E-11
 -4.42039040E-12  9.17329941E-07  8.40824233E-07  9.07996286E-06  1.84815823E-12
  3.57924516E-12 -2.69822882E-05  4.35241250E-06  1.63490969E-06 -5.73922053E-11
  1.50476673E-11 -3.90450040E-05  1.57901645E-05 -1.68977090E-11  2.43263716E-06
 -5.51717633E-07  2.07860810E-11 -1.19765051E-11 -2.20128615E-06  1.11077074E-06
  1.94320011E-11  2.95176994E-06 -3.23397636E-06 -2.12445579E-11  1.47258018E-11
 -1.07704472E-05 -1.04533902E-06  2.65046848E-07  7.60640722E-05  1.41858374E-05
  1.30275791E-04  7.60640722E-05  1.41858375E-05  1.30275791E-04 -5.02798420E-06
  2.59951292E-08  4.43574455E-12 -2.10118806E-07  1.09712053E-05  1.55254099E-10
 -5.59230224E-05 -4.95552921E-06  8.62619600E-11 -5.02798420E-06  2.59951282E-08
  4.43677323E-12 -2.10118806E-07  1.09712053E-05  1.55254301E-10 -5.59230224E-05
 -4.95552921E-06  8.62627212E-11 -3.90501139E-06 -1.78833639E-11  6.33849399E-12
  6.84722966E-06 -1.21552248E-06  3.50044966E-06 -5.03246659E-11  1.80359528E-11
 -9.47332852E-06 -2.38006292E-06 -3.90501139E-06 -1.78838557E-11  6.33853270E-12
  6.84722966E-06 -1.21552248E-06  3.50044966E-06 -5.03245088E-11  1.80369485E-11
 -9.47332852E-06 -2.38006292E-06 -1.15140549E-07 -3.42859340E-05 -5.76960978E-05
 -4.38699001E-05 -3.42859340E-05 -5.76960978E-05 -4.38699001E-05  7.06518514E-07
  1.51974771E-06 -2.21606262E-12 -1.00673544E-05  1.05961675E-05 -1.09137119E-11
 -6.42170721E-06  9.34025343E-06 -3.98171580E-11  7.06518514E-07  1.51974771E-06
 -2.21607636E-12 -1.00673544E-05  1.05961675E-05 -1.09138582E-11 -6.42170721E-06
  9.34025343E-06 -3.98173673E-11  1.03460577E-06 -9.93623133E-13  2.24951770E-12
  9.78953848E-07  1.66374768E-06  3.30516926E-08 -3.36513300E-12  6.96096106E-12
 -3.89618151E-06  4.00918528E-06  1.03460577E-06 -9.93722605E-13  2.24977271E-12
  9.78953847E-07  1.66374768E-06  3.30516921E-08 -3.36497806E-12  6.96091917E-12
 -3.89618151E-06  4.00918528E-06  9.83174098E-01 -2.62330634E-03  2.28865541E-02
 -5.95135486E-03  1.76101268E-03 -7.16035194E-04 -1.56949105E-04  1.60214317E-05
 -7.81985502E-10  6.32013098E-05  8.33779219E-06  1.76766263E-10 -7.58028965E-05
 -4.19064646E-06 -1.63797006E-10 -1.31161290E-04 -1.97273644E-05 -2.22888306E-10
  1.06956813E-04  2.04504745E-05  6.53159443E-11 -2.98535582E-05  3.36708495E-10
  3.19675745E-11  2.69471080E-05  5.06878664E-06 -2.60110220E-06  3.15300727E-12
 -2.41600661E-14  3.17045817E-06 -9.62525780E-07 -9.88730667E-06 -1.80250068E-12
  9.23816020E-13  2.13114089E-05  6.62924089E-06  2.15966482E-07  6.23228676E-11
  1.63828103E-12 -5.60548870E-06 -3.55676383E-06 -1.77326133E-11  2.88332858E-06