Methanol                                                                
Freq      RB3LYP                                                      Aug-CC-pVTZ         
Number of atoms                            I                6
Info1-9                                    I   N=           9
          31          31        1002           0           0         100
           6          18        -502
Full Title                                 C   N=           1
Methanol    
Route                                      C   N=           5
#P #Opt=(ZMatrix,VeryTight) #Freq=Anh #B3LYP/aug-cc-pVTZ    
Charge                                     I                0
Multiplicity                               I                1
Number of electrons                        I               18
Number of alpha electrons                  I                9
Number of beta electrons                   I                9
Number of basis functions                  I              184
Number of independent functions            I              184
Number of point charges in /Mol/           I                0
Number of translation vectors              I                0
Atomic numbers                             I   N=           6
           1           8           6           1           1           1
Nuclear charges                            R   N=           6
  1.00000000E+00  8.00000000E+00  6.00000000E+00  1.00000000E+00  1.00000000E+00
  1.00000000E+00
Current cartesian coordinates              R   N=          18
  2.18062087E+00  1.41333468E+00  2.62977473E-02  1.41572804E+00 -2.31895028E-01
 -1.15912447E-03 -1.26201157E+00  4.01437812E-02  1.62523515E-03 -1.99286064E+00
  3.71037167E-01  1.90748828E+00 -1.89400814E+00  1.56107903E+00 -1.24413051E+00
 -2.04750694E+00 -1.73115334E+00 -6.90133932E-01
Number of symbols in /Mol/                 I                0
Force Field                                I                0
Atom Types                                 C   N=           6
                                                            
            
Int Atom Types                             I   N=           6
           0           0           0           0           0           0
MM charges                                 R   N=           6
  0.00000000E+00  0.00000000E+00  0.00000000E+00  0.00000000E+00  0.00000000E+00
  0.00000000E+00
Integer atomic weights                     I   N=           6
           1          16          12           1           1           1
Real atomic weights                        R   N=           6
  1.00782504E+00  1.59949146E+01  1.20000000E+01  1.00782504E+00  1.00782504E+00
  1.00782504E+00
Atom fragment info                         I   N=           6
           0           0           0           0           0           0
Atom residue num                           I   N=           6
           0           0           0           0           0           0
Nuclear spins                              I   N=           6
           1           0           0           1           1           1
Nuclear ZEff                               R   N=           6
 -1.00000000E+00 -5.60000000E+00 -3.60000000E+00 -1.00000000E+00 -1.00000000E+00
 -1.00000000E+00
Nuclear ZNuc                               R   N=           6
  1.00000000E+00  8.00000000E+00  6.00000000E+00  1.00000000E+00  1.00000000E+00
  1.00000000E+00
Nuclear QMom                               R   N=           6
  0.00000000E+00  0.00000000E+00  0.00000000E+00  0.00000000E+00  0.00000000E+00
  0.00000000E+00
Nuclear GFac                               R   N=           6
  2.79284600E+00  0.00000000E+00  0.00000000E+00  2.79284600E+00  2.79284600E+00
  2.79284600E+00
MicOpt                                     I   N=           6
          -1          -1          -1          -1          -1          -1
Number of residues                         I                0
Number of secondary structures             I                0
SymInf integers                            I   N=          26
           1           1           1           1           1           0
           0           0           0           0           0           0
           0           0           0           0           0           0
           0           0           0           0           0           0
           0           0
RotTr to input orientation                 R   N=          12
 -9.06812932E-01  6.25985983E-04 -4.21532816E-01  4.21485545E-01  1.63954999E-02
 -9.06686894E-01  6.34366796E-03 -9.99865389E-01 -1.51314954E-02  1.38154825E+00
  1.75684057E-03  2.20105321E+00
Number of contracted shells                I               64
Number of primitive shells                 I               98
Pure/Cartesian d shells                    I                0
Pure/Cartesian f shells                    I                0
Highest angular momentum                   I                3
Largest degree of contraction              I                7
Shell types                                I   N=          64
           0           0           0           0           1           1
           1          -2          -2           0           0           0
           0           0           1           1           1           1
          -2          -2          -2          -3          -3           0
           0           0           0           0           1           1
           1           1          -2          -2          -2          -3
          -3           0           0           0           0           1
           1           1          -2          -2           0           0
           0           0           1           1           1          -2
          -2           0           0           0           0           1
           1           1          -2          -2
Number of primitives per shell             I   N=          64
           3           1           1           1           1           1
           1           1           1           7           6           1
           1           1           3           1           1           1
           1           1           1           1           1           7
           6           1           1           1           3           1
           1           1           1           1           1           1
           1           3           1           1           1           1
           1           1           1           1           3           1
           1           1           1           1           1           1
           1           3           1           1           1           1
           1           1           1           1
Shell to atom map                          I   N=          64
           1           1           1           1           1           1
           1           1           1           2           2           2
           2           2           2           2           2           2
           2           2           2           2           2           3
           3           3           3           3           3           3
           3           3           3           3           3           3
           3           4           4           4           4           4
           4           4           4           4           5           5
           5           5           5           5           5           5
           5           6           6           6           6           6
           6           6           6           6
Primitive exponents                        R   N=          98
  3.38700000E+01  5.09500000E+00  1.15900000E+00  3.25800000E-01  1.02700000E-01
  2.52600000E-02  1.40700000E+00  3.88000000E-01  1.02000000E-01  1.05700000E+00
  2.47000000E-01  1.53300000E+04  2.29900000E+03  5.22400000E+02  1.47300000E+02
  4.75500000E+01  1.67600000E+01  6.20700000E+00  5.22400000E+02  1.47300000E+02
  4.75500000E+01  1.67600000E+01  6.20700000E+00  6.88200000E-01  1.75200000E+00
  2.38400000E-01  7.37600000E-02  3.44600000E+01  7.74900000E+00  2.28000000E+00
  7.15600000E-01  2.14000000E-01  5.97400000E-02  2.31400000E+00  6.45000000E-01
  2.14000000E-01  1.42800000E+00  5.00000000E-01  8.23600000E+03  1.23500000E+03
  2.80800000E+02  7.92700000E+01  2.55900000E+01  8.99700000E+00  3.31900000E+00
  2.80800000E+02  7.92700000E+01  2.55900000E+01  8.99700000E+00  3.31900000E+00
  3.64300000E-01  9.05900000E-01  1.28500000E-01  4.40200000E-02  1.87100000E+01
  4.13300000E+00  1.20000000E+00  3.82700000E-01  1.20900000E-01  3.56900000E-02
  1.09700000E+00  3.18000000E-01  1.00000000E-01  7.61000000E-01  2.68000000E-01
  3.38700000E+01  5.09500000E+00  1.15900000E+00  3.25800000E-01  1.02700000E-01
  2.52600000E-02  1.40700000E+00  3.88000000E-01  1.02000000E-01  1.05700000E+00
  2.47000000E-01  3.38700000E+01  5.09500000E+00  1.15900000E+00  3.25800000E-01
  1.02700000E-01  2.52600000E-02  1.40700000E+00  3.88000000E-01  1.02000000E-01
  1.05700000E+00  2.47000000E-01  3.38700000E+01  5.09500000E+00  1.15900000E+00
  3.25800000E-01  1.02700000E-01  2.52600000E-02  1.40700000E+00  3.88000000E-01
  1.02000000E-01  1.05700000E+00  2.47000000E-01
Contraction coefficients                   R   N=          98
  2.54948632E-02  1.90362766E-01  8.52162022E-01  1.00000000E+00  1.00000000E+00
  1.00000000E+00  1.00000000E+00  1.00000000E+00  1.00000000E+00  1.00000000E+00
  1.00000000E+00  5.19808943E-04  4.02025621E-03  2.07128267E-02  8.10105536E-02
  2.35962985E-01  4.42653446E-01  3.57064423E-01 -4.42115008E-05 -1.22591041E-03
 -1.05517725E-02 -6.74452633E-02 -1.71198607E-01  1.07329856E+00  1.00000000E+00
  1.00000000E+00  1.00000000E+00  4.11634896E-02  2.57762836E-01  8.02419274E-01
  1.00000000E+00  1.00000000E+00  1.00000000E+00  1.00000000E+00  1.00000000E+00
  1.00000000E+00  1.00000000E+00  1.00000000E+00  5.41978320E-04  4.19287382E-03
  2.15221621E-02  8.35343220E-02  2.39582846E-01  4.42852842E-01  3.51799562E-01
 -5.94922494E-05 -1.14815831E-03 -1.00191374E-02 -6.12194923E-02 -1.73269854E-01
  1.07291519E+00  1.00000000E+00  1.00000000E+00  1.00000000E+00  3.94263872E-02
  2.44088985E-01  8.15492009E-01  1.00000000E+00  1.00000000E+00  1.00000000E+00
  1.00000000E+00  1.00000000E+00  1.00000000E+00  1.00000000E+00  1.00000000E+00
  2.54948632E-02  1.90362766E-01  8.52162022E-01  1.00000000E+00  1.00000000E+00
  1.00000000E+00  1.00000000E+00  1.00000000E+00  1.00000000E+00  1.00000000E+00
  1.00000000E+00  2.54948632E-02  1.90362766E-01  8.52162022E-01  1.00000000E+00
  1.00000000E+00  1.00000000E+00  1.00000000E+00  1.00000000E+00  1.00000000E+00
  1.00000000E+00  1.00000000E+00  2.54948632E-02  1.90362766E-01  8.52162022E-01
  1.00000000E+00  1.00000000E+00  1.00000000E+00  1.00000000E+00  1.00000000E+00
  1.00000000E+00  1.00000000E+00  1.00000000E+00
Coordinates of each shell                  R   N=         192
  2.18062087E+00  1.41333468E+00  2.62977473E-02  2.18062087E+00  1.41333468E+00
  2.62977473E-02  2.18062087E+00  1.41333468E+00  2.62977473E-02  2.18062087E+00
  1.41333468E+00  2.62977473E-02  2.18062087E+00  1.41333468E+00  2.62977473E-02
  2.18062087E+00  1.41333468E+00  2.62977473E-02  2.18062087E+00  1.41333468E+00
  2.62977473E-02  2.18062087E+00  1.41333468E+00  2.62977473E-02  2.18062087E+00
  1.41333468E+00  2.62977473E-02  1.41572804E+00 -2.31895028E-01 -1.15912447E-03
  1.41572804E+00 -2.31895028E-01 -1.15912447E-03  1.41572804E+00 -2.31895028E-01
 -1.15912447E-03  1.41572804E+00 -2.31895028E-01 -1.15912447E-03  1.41572804E+00
 -2.31895028E-01 -1.15912447E-03  1.41572804E+00 -2.31895028E-01 -1.15912447E-03
  1.41572804E+00 -2.31895028E-01 -1.15912447E-03  1.41572804E+00 -2.31895028E-01
 -1.15912447E-03  1.41572804E+00 -2.31895028E-01 -1.15912447E-03  1.41572804E+00
 -2.31895028E-01 -1.15912447E-03  1.41572804E+00 -2.31895028E-01 -1.15912447E-03
  1.41572804E+00 -2.31895028E-01 -1.15912447E-03  1.41572804E+00 -2.31895028E-01
 -1.15912447E-03  1.41572804E+00 -2.31895028E-01 -1.15912447E-03 -1.26201157E+00
  4.01437812E-02  1.62523515E-03 -1.26201157E+00  4.01437812E-02  1.62523515E-03
 -1.26201157E+00  4.01437812E-02  1.62523515E-03 -1.26201157E+00  4.01437812E-02
  1.62523515E-03 -1.26201157E+00  4.01437812E-02  1.62523515E-03 -1.26201157E+00
  4.01437812E-02  1.62523515E-03 -1.26201157E+00  4.01437812E-02  1.62523515E-03
 -1.26201157E+00  4.01437812E-02  1.62523515E-03 -1.26201157E+00  4.01437812E-02
  1.62523515E-03 -1.26201157E+00  4.01437812E-02  1.62523515E-03 -1.26201157E+00
  4.01437812E-02  1.62523515E-03 -1.26201157E+00  4.01437812E-02  1.62523515E-03
 -1.26201157E+00  4.01437812E-02  1.62523515E-03 -1.26201157E+00  4.01437812E-02
  1.62523515E-03 -1.99286064E+00  3.71037167E-01  1.90748828E+00 -1.99286064E+00
  3.71037167E-01  1.90748828E+00 -1.99286064E+00  3.71037167E-01  1.90748828E+00
 -1.99286064E+00  3.71037167E-01  1.90748828E+00 -1.99286064E+00  3.71037167E-01
  1.90748828E+00 -1.99286064E+00  3.71037167E-01  1.90748828E+00 -1.99286064E+00
  3.71037167E-01  1.90748828E+00 -1.99286064E+00  3.71037167E-01  1.90748828E+00
 -1.99286064E+00  3.71037167E-01  1.90748828E+00 -1.89400814E+00  1.56107903E+00
 -1.24413051E+00 -1.89400814E+00  1.56107903E+00 -1.24413051E+00 -1.89400814E+00
  1.56107903E+00 -1.24413051E+00 -1.89400814E+00  1.56107903E+00 -1.24413051E+00
 -1.89400814E+00  1.56107903E+00 -1.24413051E+00 -1.89400814E+00  1.56107903E+00
 -1.24413051E+00 -1.89400814E+00  1.56107903E+00 -1.24413051E+00 -1.89400814E+00
  1.56107903E+00 -1.24413051E+00 -1.89400814E+00  1.56107903E+00 -1.24413051E+00
 -2.04750694E+00 -1.73115334E+00 -6.90133932E-01 -2.04750694E+00 -1.73115334E+00
 -6.90133932E-01 -2.04750694E+00 -1.73115334E+00 -6.90133932E-01 -2.04750694E+00
 -1.73115334E+00 -6.90133932E-01 -2.04750694E+00 -1.73115334E+00 -6.90133932E-01
 -2.04750694E+00 -1.73115334E+00 -6.90133932E-01 -2.04750694E+00 -1.73115334E+00
 -6.90133932E-01 -2.04750694E+00 -1.73115334E+00 -6.90133932E-01 -2.04750694E+00
 -1.73115334E+00 -6.90133932E-01
Num ILSW                                   I              100
ILSW                                       I   N=         100
           0           0           0           1           2           0
           0           0           0           0         402          -1
           5           0           0           0           2           0
           0           0           0           0           1           0
           1           0           0           0           0           0
           0           0      100000           0          -1           0
           0           0           0           0           0           0
           0           0           0           1           0           0
           0 -2000000000           1           0           0           0
           0           0           4          52           0           0
           0           0           5           0           0           0
           0           0           0           6           0           1
           0           0           0           0           0           0
           0           0           0           0           0           0
           0           0           0           0           0           0
           0           0           0           0           0           0
           0           0           0           0
Num RLSW                                   I               52
RLSW                                       R   N=          52
  8.00000000E-01  7.20000000E-01  1.00000000E+00  8.10000000E-01  2.00000000E-01
  0.00000000E+00  0.00000000E+00  1.00000000E+00  0.00000000E+00  0.00000000E+00
  0.00000000E+00  0.00000000E+00  1.00000000E+00  0.00000000E+00  0.00000000E+00
  0.00000000E+00  0.00000000E+00  1.00000000E+00  0.00000000E+00  0.00000000E+00
  0.00000000E+00  0.00000000E+00  1.00000000E+00  0.00000000E+00  0.00000000E+00
  0.00000000E+00  0.00000000E+00  1.00000000E+00  0.00000000E+00  0.00000000E+00
  0.00000000E+00  0.00000000E+00  1.00000000E+00  0.00000000E+00  0.00000000E+00
  0.00000000E+00  0.00000000E+00  0.00000000E+00  1.00000000E+00  1.00000000E+00
  0.00000000E+00  1.00000000E+00  0.00000000E+00  0.00000000E+00  0.00000000E+00
  0.00000000E+00  0.00000000E+00  0.00000000E+00  0.00000000E+00  0.00000000E+00
  0.00000000E+00  0.00000000E+00
MxBond                                     I                4
NBond                                      I   N=           6
           1           2           4           1           1           1
IBond                                      I   N=          24
           2           0           0           0           1           3
           0           0           2           4           5           6
           3           0           0           0           3           0
           0           0           3           0           0           0
RBond                                      R   N=          24
  1.00000000E+00  0.00000000E+00  0.00000000E+00  0.00000000E+00  1.00000000E+00
  1.00000000E+00  0.00000000E+00  0.00000000E+00  1.00000000E+00  1.00000000E+00
  1.00000000E+00  1.00000000E+00  1.00000000E+00  0.00000000E+00  0.00000000E+00
  0.00000000E+00  1.00000000E+00  0.00000000E+00  0.00000000E+00  0.00000000E+00
  1.00000000E+00  0.00000000E+00  0.00000000E+00  0.00000000E+00
Virial Ratio                               R      2.006365015683830E+00
SCF Energy                                 R     -1.157763714353835E+02
Total Energy                               R     -1.157763714353835E+02
RMS Force                                  R      6.190574056174934E-04
RMS Density                                R      7.913725766317779E-09
NImag                                      I                0
Job Status                                 I                1
Nuclear derivative order                   I                3
External E-field                           R   N=          35
  0.00000000E+00  0.00000000E+00  0.00000000E+00  0.00000000E+00  0.00000000E+00
  0.00000000E+00  0.00000000E+00  0.00000000E+00  0.00000000E+00  0.00000000E+00
  0.00000000E+00  0.00000000E+00  0.00000000E+00  0.00000000E+00  0.00000000E+00
  0.00000000E+00  0.00000000E+00  0.00000000E+00  0.00000000E+00  0.00000000E+00
  0.00000000E+00  0.00000000E+00  0.00000000E+00  0.00000000E+00  0.00000000E+00
  0.00000000E+00  0.00000000E+00  0.00000000E+00  0.00000000E+00  0.00000000E+00
  0.00000000E+00  0.00000000E+00  0.00000000E+00  0.00000000E+00  0.00000000E+00
IOpCl                                      I                0
IROHF                                      I                0
Alpha Orbital Energies                     R   N=         184
 -1.91349258E+01 -1.02169963E+01 -1.02219944E+00 -6.87972954E-01 -5.13169485E-01
 -4.45201315E-01 -4.31948808E-01 -3.44285382E-01 -2.84429543E-01 -1.59127231E-02
  4.18964644E-03  2.06294132E-02  2.47852563E-02  5.60265841E-02  7.13229260E-02
  8.64605977E-02  8.94821192E-02  9.99484959E-02  1.15209968E-01  1.17718229E-01
  1.24674759E-01  1.32307942E-01  1.66405072E-01  1.91839357E-01  2.14661610E-01
  2.29003357E-01  2.40352586E-01  2.46528383E-01  2.54235819E-01  2.65694460E-01
  2.78698332E-01  2.82001345E-01  3.03446698E-01  3.21161682E-01  3.26606582E-01
  3.34376792E-01  3.49282085E-01  3.51737553E-01  3.71352126E-01  3.82027008E-01
  4.00145925E-01  4.19875933E-01  4.24982256E-01  5.15995564E-01  5.35865849E-01
  5.55900281E-01  5.95786649E-01  6.21107442E-01  6.37989028E-01  6.54983293E-01
  6.68382884E-01  6.77396670E-01  7.35352640E-01  7.43026277E-01  7.52658280E-01
  7.88179469E-01  7.93085914E-01  8.00554821E-01  8.01295134E-01  8.30189465E-01
  8.36706111E-01  8.53445565E-01  8.71265835E-01  9.01639077E-01  9.10710673E-01
  9.23991442E-01  9.44271084E-01  9.65309056E-01  9.81062452E-01  9.92245941E-01
  1.00330181E+00  1.03517935E+00  1.05170899E+00  1.07077493E+00  1.11140956E+00
  1.12697935E+00  1.17628626E+00  1.20207265E+00  1.22122832E+00  1.25566287E+00
  1.34124769E+00  1.35645812E+00  1.37197103E+00  1.41183147E+00  1.41556792E+00
  1.42801534E+00  1.45731837E+00  1.45893018E+00  1.47550131E+00  1.49669397E+00
  1.51750511E+00  1.57475545E+00  1.66313360E+00  1.71684786E+00  1.72278835E+00
  1.72511661E+00  1.77786150E+00  1.82605678E+00  1.86065316E+00  1.88903715E+00
  1.94017084E+00  1.95890810E+00  2.10174041E+00  2.15663974E+00  2.22910021E+00
  2.25320870E+00  2.28143781E+00  2.32267867E+00  2.42513650E+00  2.47779856E+00
  2.50699260E+00  2.56237097E+00  2.60536527E+00  2.64578423E+00  2.70438419E+00
  2.74985391E+00  2.87409567E+00  2.99794661E+00  3.06182755E+00  3.16643398E+00
  3.23281766E+00  3.26908579E+00  3.29038370E+00  3.30667805E+00  3.36812724E+00
  3.44475446E+00  3.51092511E+00  3.54039526E+00  3.55398196E+00  3.61646765E+00
  3.66232513E+00  3.72291573E+00  3.75735159E+00  3.78379809E+00  3.81683050E+00
  3.85624220E+00  3.89935387E+00  3.93466560E+00  3.95703719E+00  4.07630812E+00
  4.17017463E+00  4.17931993E+00  4.23313893E+00  4.24259509E+00  4.30459854E+00
  4.39576669E+00  4.42259007E+00  4.43767593E+00  4.54846417E+00  4.56368453E+00
  4.66843567E+00  4.68768893E+00  4.73851660E+00  4.83034962E+00  4.87168967E+00
  4.94746731E+00  4.97520066E+00  5.05948377E+00  5.13466723E+00  5.19758200E+00
  5.24635572E+00  5.26170353E+00  5.38488367E+00  5.63483149E+00  5.68601781E+00
  5.72042178E+00  5.74207013E+00  6.10073966E+00  6.22889634E+00  6.23927475E+00
  6.40358051E+00  6.42996196E+00  6.58899028E+00  6.76173841E+00  6.80923546E+00
  6.84083875E+00  6.96666114E+00  7.00204316E+00  7.20557291E+00  7.31937588E+00
  7.61501929E+00  7.92900741E+00  1.46179873E+01  1.67004833E+01
Alpha MO coefficients                      R   N=       33856
  8.86557876E-04 -1.47040330E-03 -4.22562685E-03 -8.16444220E-04  1.77099995E-04
  1.97296639E-04  1.07793227E-05  1.31474509E-03  1.55725998E-03 -2.11004035E-05
  1.29369888E-03  1.07198790E-03 -3.44954797E-05  5.96613450E-04 -1.57524181E-05
 -2.40268019E-05  5.45252029E-04 -8.91084617E-04  2.65356904E-04  3.61800884E-05
  1.34571335E-05 -3.81060097E-05 -2.79875331E-04  9.73235940E-01 -9.38548535E-03
  5.14038422E-02 -9.07103808E-04 -4.18413741E-03 -9.65007349E-04  1.31567436E-03
  3.18881675E-05  2.03246556E-03  6.03461577E-04  1.28940643E-05  4.15022470E-03
 -1.05725447E-03 -1.58833430E-06  1.42356881E-03  1.51210855E-04  1.83106415E-05
 -3.57700328E-04 -6.24633611E-07  1.14650258E-05  4.48070818E-05  2.33047842E-04
  7.51559941E-04  2.06908619E-05 -3.80086354E-06 -1.37022616E-03  1.23993399E-04
  8.35740128E-04  2.54607137E-06  5.72297844E-05 -9.59542590E-04  3.91396744E-05
 -8.47897638E-06 -1.05310357E-04 -1.67294527E-04 -4.81922220E-06  8.28342162E-06
 -2.02995230E-04 -8.55949629E-05  2.19000834E-05 -1.46756631E-04  4.46730415E-04
 -6.57735186E-07 -1.98957453E-05  1.18503595E-03 -2.23613096E-04  2.00069168E-04
  1.32863627E-03 -3.68239876E-04 -1.24289129E-03  2.65921730E-03 -2.75769614E-04
  5.91718159E-05 -1.02155560E-05  4.85273748E-03 -1.25112037E-03  1.43726708E-04
  4.14231896E-03  3.47232240E-04  4.68940427E-04  7.22521329E-04 -1.59848271E-04
  4.93349743E-05 -2.90517496E-04 -7.56451765E-06  2.14647209E-05  4.78508817E-04
 -1.69014354E-04 -1.21831664E-03  1.06042479E-04  2.62087342E-04  2.35916076E-03
  2.18184162E-04 -3.35576968E-04  3.48354156E-05 -5.80982208E-04  1.02041833E-03
  1.14410780E-03 -9.71705737E-06 -2.00969954E-04 -3.67157520E-05 -4.37434550E-05
 -2.40686551E-05  3.21131157E-04 -1.77386403E-04 -8.39678279E-05  1.33042020E-04
 -6.23042194E-04 -1.30421480E-04 -2.49273471E-05  1.40942953E-04  1.71136948E-04
  2.05520226E-05  1.78942883E-03  1.66471652E-03  9.94519765E-05  1.26097337E-05
 -1.17946855E-05 -1.02177731E-05  1.46369193E-04  2.17268636E-04 -7.19872284E-04
  3.60090470E-04  5.64980937E-04 -6.52930926E-04  1.02433380E-04  3.44180724E-05
 -2.05458988E-05 -5.72919505E-05  4.44549837E-05  1.42524083E-04 -2.01232317E-04
 -2.72208993E-05 -3.25779798E-05  7.99961918E-05  1.63228994E-05  2.61198133E-03
  2.21172953E-03  3.94864526E-04 -3.46116500E-06 -1.81026445E-05  2.31463675E-05
  4.83956920E-04 -9.32891091E-04  4.39260407E-04  1.43382921E-04 -4.93523039E-04
  6.87750876E-04  2.30223507E-05 -1.33133518E-05 -5.80554415E-05 -1.01683954E-04
  5.83367893E-06  4.76231525E-05  1.52104054E-04 -1.06053328E-04 -9.68329793E-05
 -1.80510766E-04 -3.38484594E-05  1.19788493E-03  2.06710058E-03 -2.61504440E-04
  2.19314507E-05  8.00888083E-06 -3.33573297E-06  2.70591853E-04  1.12164763E-04
  3.39054691E-04  1.17671580E-03  2.45672313E-04 -7.22936217E-05  2.49442357E-05
  2.66960431E-05  2.19614128E-05 -4.18477275E-05 -1.25433132E-05  1.02733501E-05
  1.21888555E-04 -3.69906314E-06  5.21746841E-05  1.85792936E-05  2.80599315E-04
 -4.23937062E-03  2.94947824E-03  8.28212887E-04  4.07639089E-04  1.39859904E-04
  1.50838048E-04  3.43501641E-03  6.13362574E-04  1.62912426E-04 -4.31577562E-04
 -7.63129975E-04 -3.25845233E-04  1.96827855E-04 -1.20014474E-05 -6.09122938E-05
 -3.01462583E-04 -5.08897873E-04  4.66293606E-05  3.28373995E-04 -1.31785215E-04
 -2.46840098E-04 -8.57414181E-04 -9.37824903E-06  5.14422159E-04  2.31036326E-04
  1.64613054E-02  8.60758475E-03 -1.91987452E-04 -8.62397381E-05  1.12465180E-05
 -3.66250446E-04  1.05384083E-03 -1.87720720E-05 -6.66181054E-03  3.47633031E-03
  8.32708165E-05 -1.92159224E-03  2.05983936E-04  2.44469276E-04 -1.00238518E-04
  2.71252005E-06 -9.85976792E-06  2.66890469E-04 -1.83093933E-05  1.14090510E-04
 -2.77981275E-05  3.51452080E-05 -1.73629498E-03  2.56668973E-04 -6.60737479E-05
 -3.81926959E-04  1.39323142E-04 -2.11140344E-03 -1.36372592E-03 -8.68934096E-05
 -1.30992250E-04 -1.19372753E-04 -5.15279919E-05  6.34709380E-05 -1.02117148E-04
 -7.24079825E-05  3.98402985E-04 -4.69786349E-04  2.60782543E-04  2.17987382E-04
 -3.72441975E-04  1.77616020E-03 -1.30875316E-03  9.77443794E-01  1.50334977E-02
  5.37653579E-02 -2.01987547E-02 -5.17322230E-03  1.08938795E-03 -1.35591876E-05
 -2.85680918E-05 -5.55610510E-03 -6.78688335E-04 -2.73154892E-04 -6.35224030E-03
 -1.48088854E-03  6.63132897E-04 -7.30636845E-04 -2.90056485E-05 -1.61403829E-04
  1.20198004E-04  8.22216136E-06 -3.22063276E-06 -3.27094352E-04 -1.05827257E-05
  1.80800055E-03  2.70281373E-05  2.06088614E-04 -1.61587635E-03  1.20399943E-03
  2.08967148E-03  2.52995439E-04  8.81609685E-04 -1.86974880E-03 -4.88386309E-04
  1.35522585E-03 -8.16521141E-04  9.18990275E-04  1.02826432E-03 -1.86981026E-04
  1.39678457E-03 -6.94406711E-05 -3.11946724E-03  2.58098614E-03 -2.76370936E-03
 -2.75093450E-03 -2.30621692E-04 -2.78964404E-03  1.62437688E-04  7.75074037E-05
  1.19617279E-03 -3.89726378E-03  1.43897684E-05 -3.30757756E-04  1.10028696E-04
  7.75532061E-04 -1.77169861E-03  1.16828281E-03  4.82201054E-03 -2.23476396E-03
  3.00818298E-04  2.42917617E-03 -1.15979822E-03  9.07842557E-04 -3.90408068E-04
 -9.86726088E-05  1.80494413E-04 -1.77707507E-03  1.76606097E-03 -5.75247407E-04
  1.33020093E-05  5.60442764E-04  9.48461473E-05  2.78591591E-03 -4.62884126E-04
 -3.78772281E-04 -2.57655430E-04  6.07518389E-04 -5.24608087E-04 -1.41407911E-03
  3.80895784E-03 -3.03984672E-03 -1.51305510E-03  2.09813828E-03 -1.00119908E-03
 -1.01225704E-04 -5.02958305E-04  1.18209958E-03  6.19285118E-04  6.31301494E-04
  1.23972312E-07 -1.02273282E-03  1.68408760E-03  9.73921756E-04  1.38972207E-03
 -3.68818794E-05  3.16265968E-04 -2.62129254E-03  2.41497301E-05 -3.30768999E-04
 -7.78098458E-04 -3.39199191E-04 -1.30138517E-03 -5.44561098E-03 -1.59386090E-03
 -2.23792717E-03 -2.47867007E-03 -1.08316891E-04  4.73990797E-04 -2.81964148E-04
 -8.07366484E-04  9.92850852E-04 -8.54429285E-04  5.57687573E-04 -6.73266213E-04
 -1.05705172E-03  1.63646615E-03 -1.87624708E-03  9.12310634E-02  7.73153992E-02
 -7.12873473E-03 -1.29198504E-03 -7.14761200E-03 -1.15758375E-02 -1.63210329E-04
 -1.06054720E-02 -7.14603577E-03  4.33651144E-07 -8.55459627E-04  5.19326288E-03
  4.09319654E-04 -1.64050066E-03  4.42796540E-05  3.89495147E-05 -9.82295567E-04
  3.03651246E-03 -1.82134730E-04  2.05649598E-05 -8.76669314E-05  2.74439163E-03
  5.67035076E-04 -1.98138043E-01  4.52600582E-01  1.34824633E-01  2.80802470E-01
  3.13052373E-02 -2.96967445E-02  5.21143289E-02  9.31390606E-04 -4.23265932E-02
  6.20279414E-02  1.12787607E-03 -1.85704526E-02  1.62547288E-02  4.99627231E-04
  1.21672915E-03  2.18079646E-03 -2.20209834E-04 -3.71884662E-03  2.07029643E-05
  1.18322022E-04  2.05056651E-04  1.14777366E-03 -1.06530613E-02 -1.47794419E-05
  2.02117861E-04  6.84790834E-03  1.80506179E-04  5.18795931E-04 -2.46826172E-04
 -1.44565117E-04  2.60358348E-03 -5.06404542E-04 -6.30740037E-05  1.23324105E-03
 -9.19633897E-04 -4.14368059E-05  2.53348747E-05 -2.36281709E-03  3.01967435E-04
  1.42195473E-04  1.55735310E-03 -4.82181521E-05  1.64917317E-04 -7.65483708E-05
 -1.37243046E-03  2.74525954E-03 -6.86449823E-02  1.49236367E-01  3.90152943E-02
 -4.48935542E-03 -9.82902145E-03  5.76573346E-02 -2.44989200E-03 -2.53745789E-04
  5.43482843E-02 -1.72804371E-03 -3.31337877E-04  1.80254378E-03 -3.22015715E-04
 -2.19434067E-03 -1.48764251E-03 -1.44655193E-03  3.06505391E-05 -4.63450505E-03
 -3.22433672E-05 -3.62650096E-05  7.87747929E-03 -7.69574680E-04 -7.05891367E-03
  1.46192928E-04 -5.70894555E-04  9.94433885E-03 -1.56410058E-03 -1.71051546E-08
 -2.33760550E-04 -1.29886538E-03 -2.40212494E-03  1.14323769E-03  9.13527708E-04
 -2.74386917E-03  7.13200310E-04  7.73590272E-04 -3.67370871E-05  2.95479730E-03
 -4.62935773E-04 -1.82721243E-03  3.24733252E-04 -1.55811067E-03 -1.68147618E-03
  4.39356905E-04  6.90552465E-04 -1.13715954E-03  1.34944776E-02  1.80014952E-02
  8.39897709E-03  8.60815410E-04  1.24134180E-03 -2.48732860E-04 -1.08594387E-03
  1.90589241E-03  5.71099352E-04  9.63889886E-04 -7.51709977E-04  1.31411003E-03
 -1.83854644E-04 -2.33699004E-04 -6.77076996E-04  7.57290912E-06  4.63907719E-04
 -1.08628430E-04 -1.48441738E-03  1.72857710E-03 -6.86956666E-04 -1.66293677E-04
  5.15452924E-04  1.42605356E-02  1.65462636E-02  8.82705371E-04  1.70834392E-03