Methanol                                                                
Freq      RB3LYP                                                      Aug-CC-pVTZ         
Number of atoms                            I                6
Info1-9                                    I   N=           9
          31          31        1002           0           0         100
           6          18        -502
Full Title                                 C   N=           1
Methanol    
Route                                      C   N=           5
#P #Opt=(ZMatrix,VeryTight) #Freq=Anh #B3LYP/aug-cc-pVTZ    
Charge                                     I                0
Multiplicity                               I                1
Number of electrons                        I               18
Number of alpha electrons                  I                9
Number of beta electrons                   I                9
Number of basis functions                  I              184
Number of independent functions            I              184
Number of point charges in /Mol/           I                0
Number of translation vectors              I                0
Atomic numbers                             I   N=           6
           1           8           6           1           1           1
Nuclear charges                            R   N=           6
  1.00000000E+00  8.00000000E+00  6.00000000E+00  1.00000000E+00  1.00000000E+00
  1.00000000E+00
Current cartesian coordinates              R   N=          18
 -2.17526994E+00  1.41800444E+00  1.60417929E-07 -1.41506717E+00 -2.30731313E-01
 -2.16656423E-24  1.26121761E+00  3.86691415E-02 -1.26241734E-07  1.94033365E+00
  1.02839534E+00 -1.68336912E+00  1.94033302E+00  1.02842146E+00  1.68335414E+00
  2.04783500E+00 -1.86098559E+00  1.54387522E-05
Number of symbols in /Mol/                 I                0
Force Field                                I                0
Atom Types                                 C   N=           6
                                                            
            
Int Atom Types                             I   N=           6
           0           0           0           0           0           0
MM charges                                 R   N=           6
  0.00000000E+00  0.00000000E+00  0.00000000E+00  0.00000000E+00  0.00000000E+00
  0.00000000E+00
Integer atomic weights                     I   N=           6
           1          16          12           1           1           1
Real atomic weights                        R   N=           6
  1.00782504E+00  1.59949146E+01  1.20000000E+01  1.00782504E+00  1.00782504E+00
  1.00782504E+00
Atom fragment info                         I   N=           6
           0           0           0           0           0           0
Atom residue num                           I   N=           6
           0           0           0           0           0           0
Nuclear spins                              I   N=           6
           1           0           0           1           1           1
Nuclear ZEff                               R   N=           6
 -1.00000000E+00 -5.60000000E+00 -3.60000000E+00 -1.00000000E+00 -1.00000000E+00
 -1.00000000E+00
Nuclear ZNuc                               R   N=           6
  1.00000000E+00  8.00000000E+00  6.00000000E+00  1.00000000E+00  1.00000000E+00
  1.00000000E+00
Nuclear QMom                               R   N=           6
  0.00000000E+00  0.00000000E+00  0.00000000E+00  0.00000000E+00  0.00000000E+00
  0.00000000E+00
Nuclear GFac                               R   N=           6
  2.79284600E+00  0.00000000E+00  0.00000000E+00  2.79284600E+00  2.79284600E+00
  2.79284600E+00
MicOpt                                     I   N=           6
          -1          -1          -1          -1          -1          -1
Number of residues                         I                0
Number of secondary structures             I                0
SymInf integers                            I   N=          26
           1           1           1           1           1           0
           0           0           0           0           0           0
           0           0           0           0           0           0
           0           0           0           0           0           0
           0           0
RotTr to input orientation                 R   N=          12
  9.08116958E-01  6.45204703E-08  4.18716598E-01  4.18716598E-01 -4.70776540E-08
 -9.08116958E-01 -3.88799382E-08  1.00000000E+00 -6.97678078E-08  1.38165752E+00
  4.66878329E-08  2.19853551E+00
Number of contracted shells                I               64
Number of primitive shells                 I               98
Pure/Cartesian d shells                    I                0
Pure/Cartesian f shells                    I                0
Highest angular momentum                   I                3
Largest degree of contraction              I                7
Shell types                                I   N=          64
           0           0           0           0           1           1
           1          -2          -2           0           0           0
           0           0           1           1           1           1
          -2          -2          -2          -3          -3           0
           0           0           0           0           1           1
           1           1          -2          -2          -2          -3
          -3           0           0           0           0           1
           1           1          -2          -2           0           0
           0           0           1           1           1          -2
          -2           0           0           0           0           1
           1           1          -2          -2
Number of primitives per shell             I   N=          64
           3           1           1           1           1           1
           1           1           1           7           6           1
           1           1           3           1           1           1
           1           1           1           1           1           7
           6           1           1           1           3           1
           1           1           1           1           1           1
           1           3           1           1           1           1
           1           1           1           1           3           1
           1           1           1           1           1           1
           1           3           1           1           1           1
           1           1           1           1
Shell to atom map                          I   N=          64
           1           1           1           1           1           1
           1           1           1           2           2           2
           2           2           2           2           2           2
           2           2           2           2           2           3
           3           3           3           3           3           3
           3           3           3           3           3           3
           3           4           4           4           4           4
           4           4           4           4           5           5
           5           5           5           5           5           5
           5           6           6           6           6           6
           6           6           6           6
Primitive exponents                        R   N=          98
  3.38700000E+01  5.09500000E+00  1.15900000E+00  3.25800000E-01  1.02700000E-01
  2.52600000E-02  1.40700000E+00  3.88000000E-01  1.02000000E-01  1.05700000E+00
  2.47000000E-01  1.53300000E+04  2.29900000E+03  5.22400000E+02  1.47300000E+02
  4.75500000E+01  1.67600000E+01  6.20700000E+00  5.22400000E+02  1.47300000E+02
  4.75500000E+01  1.67600000E+01  6.20700000E+00  6.88200000E-01  1.75200000E+00
  2.38400000E-01  7.37600000E-02  3.44600000E+01  7.74900000E+00  2.28000000E+00
  7.15600000E-01  2.14000000E-01  5.97400000E-02  2.31400000E+00  6.45000000E-01
  2.14000000E-01  1.42800000E+00  5.00000000E-01  8.23600000E+03  1.23500000E+03
  2.80800000E+02  7.92700000E+01  2.55900000E+01  8.99700000E+00  3.31900000E+00
  2.80800000E+02  7.92700000E+01  2.55900000E+01  8.99700000E+00  3.31900000E+00
  3.64300000E-01  9.05900000E-01  1.28500000E-01  4.40200000E-02  1.87100000E+01
  4.13300000E+00  1.20000000E+00  3.82700000E-01  1.20900000E-01  3.56900000E-02
  1.09700000E+00  3.18000000E-01  1.00000000E-01  7.61000000E-01  2.68000000E-01
  3.38700000E+01  5.09500000E+00  1.15900000E+00  3.25800000E-01  1.02700000E-01
  2.52600000E-02  1.40700000E+00  3.88000000E-01  1.02000000E-01  1.05700000E+00
  2.47000000E-01  3.38700000E+01  5.09500000E+00  1.15900000E+00  3.25800000E-01
  1.02700000E-01  2.52600000E-02  1.40700000E+00  3.88000000E-01  1.02000000E-01
  1.05700000E+00  2.47000000E-01  3.38700000E+01  5.09500000E+00  1.15900000E+00
  3.25800000E-01  1.02700000E-01  2.52600000E-02  1.40700000E+00  3.88000000E-01
  1.02000000E-01  1.05700000E+00  2.47000000E-01
Contraction coefficients                   R   N=          98
  2.54948632E-02  1.90362766E-01  8.52162022E-01  1.00000000E+00  1.00000000E+00
  1.00000000E+00  1.00000000E+00  1.00000000E+00  1.00000000E+00  1.00000000E+00
  1.00000000E+00  5.19808943E-04  4.02025621E-03  2.07128267E-02  8.10105536E-02
  2.35962985E-01  4.42653446E-01  3.57064423E-01 -4.42115008E-05 -1.22591041E-03
 -1.05517725E-02 -6.74452633E-02 -1.71198607E-01  1.07329856E+00  1.00000000E+00
  1.00000000E+00  1.00000000E+00  4.11634896E-02  2.57762836E-01  8.02419274E-01
  1.00000000E+00  1.00000000E+00  1.00000000E+00  1.00000000E+00  1.00000000E+00
  1.00000000E+00  1.00000000E+00  1.00000000E+00  5.41978320E-04  4.19287382E-03
  2.15221621E-02  8.35343220E-02  2.39582846E-01  4.42852842E-01  3.51799562E-01
 -5.94922494E-05 -1.14815831E-03 -1.00191374E-02 -6.12194923E-02 -1.73269854E-01
  1.07291519E+00  1.00000000E+00  1.00000000E+00  1.00000000E+00  3.94263872E-02
  2.44088985E-01  8.15492009E-01  1.00000000E+00  1.00000000E+00  1.00000000E+00
  1.00000000E+00  1.00000000E+00  1.00000000E+00  1.00000000E+00  1.00000000E+00
  2.54948632E-02  1.90362766E-01  8.52162022E-01  1.00000000E+00  1.00000000E+00
  1.00000000E+00  1.00000000E+00  1.00000000E+00  1.00000000E+00  1.00000000E+00
  1.00000000E+00  2.54948632E-02  1.90362766E-01  8.52162022E-01  1.00000000E+00
  1.00000000E+00  1.00000000E+00  1.00000000E+00  1.00000000E+00  1.00000000E+00
  1.00000000E+00  1.00000000E+00  2.54948632E-02  1.90362766E-01  8.52162022E-01
  1.00000000E+00  1.00000000E+00  1.00000000E+00  1.00000000E+00  1.00000000E+00
  1.00000000E+00  1.00000000E+00  1.00000000E+00
Coordinates of each shell                  R   N=         192
 -2.17526994E+00  1.41800444E+00  1.60417929E-07 -2.17526994E+00  1.41800444E+00
  1.60417929E-07 -2.17526994E+00  1.41800444E+00  1.60417929E-07 -2.17526994E+00
  1.41800444E+00  1.60417929E-07 -2.17526994E+00  1.41800444E+00  1.60417929E-07
 -2.17526994E+00  1.41800444E+00  1.60417929E-07 -2.17526994E+00  1.41800444E+00
  1.60417929E-07 -2.17526994E+00  1.41800444E+00  1.60417929E-07 -2.17526994E+00
  1.41800444E+00  1.60417929E-07 -1.41506717E+00 -2.30731313E-01  0.00000000E+00
 -1.41506717E+00 -2.30731313E-01  0.00000000E+00 -1.41506717E+00 -2.30731313E-01
  0.00000000E+00 -1.41506717E+00 -2.30731313E-01  0.00000000E+00 -1.41506717E+00
 -2.30731313E-01  0.00000000E+00 -1.41506717E+00 -2.30731313E-01  0.00000000E+00
 -1.41506717E+00 -2.30731313E-01  0.00000000E+00 -1.41506717E+00 -2.30731313E-01
  0.00000000E+00 -1.41506717E+00 -2.30731313E-01  0.00000000E+00 -1.41506717E+00
 -2.30731313E-01  0.00000000E+00 -1.41506717E+00 -2.30731313E-01  0.00000000E+00
 -1.41506717E+00 -2.30731313E-01  0.00000000E+00 -1.41506717E+00 -2.30731313E-01
  0.00000000E+00 -1.41506717E+00 -2.30731313E-01  0.00000000E+00  1.26121761E+00
  3.86691415E-02 -1.26241734E-07  1.26121761E+00  3.86691415E-02 -1.26241734E-07
  1.26121761E+00  3.86691415E-02 -1.26241734E-07  1.26121761E+00  3.86691415E-02
 -1.26241734E-07  1.26121761E+00  3.86691415E-02 -1.26241734E-07  1.26121761E+00
  3.86691415E-02 -1.26241734E-07  1.26121761E+00  3.86691415E-02 -1.26241734E-07
  1.26121761E+00  3.86691415E-02 -1.26241734E-07  1.26121761E+00  3.86691415E-02
 -1.26241734E-07  1.26121761E+00  3.86691415E-02 -1.26241734E-07  1.26121761E+00
  3.86691415E-02 -1.26241734E-07  1.26121761E+00  3.86691415E-02 -1.26241734E-07
  1.26121761E+00  3.86691415E-02 -1.26241734E-07  1.26121761E+00  3.86691415E-02
 -1.26241734E-07  1.94033365E+00  1.02839534E+00 -1.68336912E+00  1.94033365E+00
  1.02839534E+00 -1.68336912E+00  1.94033365E+00  1.02839534E+00 -1.68336912E+00
  1.94033365E+00  1.02839534E+00 -1.68336912E+00  1.94033365E+00  1.02839534E+00
 -1.68336912E+00  1.94033365E+00  1.02839534E+00 -1.68336912E+00  1.94033365E+00
  1.02839534E+00 -1.68336912E+00  1.94033365E+00  1.02839534E+00 -1.68336912E+00
  1.94033365E+00  1.02839534E+00 -1.68336912E+00  1.94033302E+00  1.02842146E+00
  1.68335414E+00  1.94033302E+00  1.02842146E+00  1.68335414E+00  1.94033302E+00
  1.02842146E+00  1.68335414E+00  1.94033302E+00  1.02842146E+00  1.68335414E+00
  1.94033302E+00  1.02842146E+00  1.68335414E+00  1.94033302E+00  1.02842146E+00
  1.68335414E+00  1.94033302E+00  1.02842146E+00  1.68335414E+00  1.94033302E+00
  1.02842146E+00  1.68335414E+00  1.94033302E+00  1.02842146E+00  1.68335414E+00
  2.04783500E+00 -1.86098559E+00  1.54387522E-05  2.04783500E+00 -1.86098559E+00
  1.54387522E-05  2.04783500E+00 -1.86098559E+00  1.54387522E-05  2.04783500E+00
 -1.86098559E+00  1.54387522E-05  2.04783500E+00 -1.86098559E+00  1.54387522E-05
  2.04783500E+00 -1.86098559E+00  1.54387522E-05  2.04783500E+00 -1.86098559E+00
  1.54387522E-05  2.04783500E+00 -1.86098559E+00  1.54387522E-05  2.04783500E+00
 -1.86098559E+00  1.54387522E-05
Num ILSW                                   I              100
ILSW                                       I   N=         100
           0           0           0           1           2           0
           0           0           0           0         402          -1
           5           0           0           0           2           0
           0           0           0           0           1           0
           1           0           0           0           0           0
           0           0      100000           0          -1           0
           0           0           0           0           0           0
           0           0           0           1           0           0
           0 -2000000000           1           0           0           0
           0           0           4          52           0           0
           0           0           5           0           0           0
           0           0           0           6           0           1
           0           0           0           0           0           0
           0           0           0           0           0           0
           0           0           0           0           0           0
           0           0           0           0           0           0
           0           0           0           0
Num RLSW                                   I               52
RLSW                                       R   N=          52
  8.00000000E-01  7.20000000E-01  1.00000000E+00  8.10000000E-01  2.00000000E-01
  0.00000000E+00  0.00000000E+00  1.00000000E+00  0.00000000E+00  0.00000000E+00
  0.00000000E+00  0.00000000E+00  1.00000000E+00  0.00000000E+00  0.00000000E+00
  0.00000000E+00  0.00000000E+00  1.00000000E+00  0.00000000E+00  0.00000000E+00
  0.00000000E+00  0.00000000E+00  1.00000000E+00  0.00000000E+00  0.00000000E+00
  0.00000000E+00  0.00000000E+00  1.00000000E+00  0.00000000E+00  0.00000000E+00
  0.00000000E+00  0.00000000E+00  1.00000000E+00  0.00000000E+00  0.00000000E+00
  0.00000000E+00  0.00000000E+00  0.00000000E+00  1.00000000E+00  1.00000000E+00
  0.00000000E+00  1.00000000E+00  0.00000000E+00  0.00000000E+00  0.00000000E+00
  0.00000000E+00  0.00000000E+00  0.00000000E+00  0.00000000E+00  0.00000000E+00
  0.00000000E+00  0.00000000E+00
MxBond                                     I                4
NBond                                      I   N=           6
           1           2           4           1           1           1
IBond                                      I   N=          24
           2           0           0           0           1           3
           0           0           2           4           5           6
           3           0           0           0           3           0
           0           0           3           0           0           0
RBond                                      R   N=          24
  1.00000000E+00  0.00000000E+00  0.00000000E+00  0.00000000E+00  1.00000000E+00
  1.00000000E+00  0.00000000E+00  0.00000000E+00  1.00000000E+00  1.00000000E+00
  1.00000000E+00  1.00000000E+00  1.00000000E+00  0.00000000E+00  0.00000000E+00
  0.00000000E+00  1.00000000E+00  0.00000000E+00  0.00000000E+00  0.00000000E+00
  1.00000000E+00  0.00000000E+00  0.00000000E+00  0.00000000E+00
Virial Ratio                               R      2.006365661789657E+00
SCF Energy                                 R     -1.157767593611226E+02
Total Energy                               R     -1.157767593611226E+02
RMS Force                                  R      3.249746087159224E-07
RMS Density                                R      6.923553576509702E-09
NImag                                      I                0
Job Status                                 I                1
Nuclear derivative order                   I                3
External E-field                           R   N=          35
  0.00000000E+00  0.00000000E+00  0.00000000E+00  0.00000000E+00  0.00000000E+00
  0.00000000E+00  0.00000000E+00  0.00000000E+00  0.00000000E+00  0.00000000E+00
  0.00000000E+00  0.00000000E+00  0.00000000E+00  0.00000000E+00  0.00000000E+00
  0.00000000E+00  0.00000000E+00  0.00000000E+00  0.00000000E+00  0.00000000E+00
  0.00000000E+00  0.00000000E+00  0.00000000E+00  0.00000000E+00  0.00000000E+00
  0.00000000E+00  0.00000000E+00  0.00000000E+00  0.00000000E+00  0.00000000E+00
  0.00000000E+00  0.00000000E+00  0.00000000E+00  0.00000000E+00  0.00000000E+00
IOpCl                                      I                0
IROHF                                      I                0
Alpha Orbital Energies                     R   N=         184
 -1.91352185E+01 -1.02169551E+01 -1.02254679E+00 -6.87873989E-01 -5.13056225E-01
 -4.45395139E-01 -4.31839253E-01 -3.44556906E-01 -2.84688650E-01 -1.57746792E-02
  4.22829221E-03  2.03748816E-02  2.47980730E-02  5.61501855E-02  7.01410865E-02
  8.76647204E-02  8.95104022E-02  1.01864033E-01  1.14957141E-01  1.16569678E-01
  1.25344690E-01  1.30911050E-01  1.66106858E-01  1.89406297E-01  2.20595700E-01
  2.22631886E-01  2.43017975E-01  2.44829926E-01  2.54771527E-01  2.66904835E-01
  2.79143620E-01  2.82526989E-01  3.03874284E-01  3.20520461E-01  3.28751536E-01
  3.31484955E-01  3.50156876E-01  3.51747741E-01  3.70559763E-01  3.81811109E-01
  3.98328699E-01  4.20868620E-01  4.21734039E-01  5.29582046E-01  5.31570430E-01
  5.55915065E-01  5.90411559E-01  6.29259353E-01  6.37124250E-01  6.56545493E-01
  6.75578777E-01  6.95187041E-01  7.01682235E-01  7.45596234E-01  7.52987770E-01
  7.87398207E-01  7.93278836E-01  7.98169447E-01  8.03904510E-01  8.28118848E-01
  8.37982776E-01  8.44107536E-01  8.71591778E-01  8.98610418E-01  9.17305789E-01
  9.20510042E-01  9.44716144E-01  9.66425451E-01  9.83146967E-01  9.91815350E-01
  9.92040314E-01  1.03722246E+00  1.06008094E+00  1.06282562E+00  1.11825701E+00
  1.15347851E+00  1.16645810E+00  1.20667385E+00  1.23185069E+00  1.24442740E+00
  1.34240789E+00  1.37418351E+00  1.37545453E+00  1.40054889E+00  1.40178247E+00
  1.41544852E+00  1.44476830E+00  1.46828476E+00  1.47238671E+00  1.50585387E+00
  1.51808581E+00  1.54568498E+00  1.66262525E+00  1.70467752E+00  1.72611275E+00
  1.76381074E+00  1.81718203E+00  1.82721581E+00  1.83164628E+00  1.85641791E+00
  1.94419185E+00  1.95007833E+00  2.10200986E+00  2.20701327E+00  2.20784094E+00
  2.23516752E+00  2.27857926E+00  2.30924656E+00  2.46265333E+00  2.48127051E+00
  2.50720849E+00  2.55225899E+00  2.60814854E+00  2.67377549E+00  2.69359464E+00
  2.74804008E+00  2.87723934E+00  2.99521582E+00  3.05674338E+00  3.17025300E+00
  3.22427370E+00  3.26178757E+00  3.29769277E+00  3.30213955E+00  3.37536025E+00
  3.43106212E+00  3.50872969E+00  3.54392357E+00  3.56849387E+00  3.60609397E+00
  3.66779150E+00  3.72372083E+00  3.76195330E+00  3.76648701E+00  3.81659269E+00
  3.86377915E+00  3.89546589E+00  3.91893306E+00  3.94356883E+00  4.11522021E+00
  4.16548468E+00  4.18126853E+00  4.19822964E+00  4.23828508E+00  4.31641841E+00
  4.40282852E+00  4.40779569E+00  4.42181729E+00  4.55301625E+00  4.62247333E+00
  4.69145440E+00  4.70056548E+00  4.71209125E+00  4.77487398E+00  4.88018026E+00
  4.89475243E+00  4.97531746E+00  5.07241183E+00  5.14200287E+00  5.21438064E+00
  5.23414913E+00  5.27849399E+00  5.34006126E+00  5.66727772E+00  5.71965356E+00
  5.72652305E+00  5.75030202E+00  6.09866826E+00  6.22501771E+00  6.23985681E+00
  6.40915581E+00  6.42024148E+00  6.58982142E+00  6.76196140E+00  6.80827894E+00
  6.84269187E+00  6.97314053E+00  6.99418165E+00  7.19972354E+00  7.31734675E+00
  7.61483505E+00  7.94862850E+00  1.45688945E+01  1.67712052E+01
Alpha MO coefficients                      R   N=       33856
  8.85705391E-04 -1.53252409E-03 -4.04761757E-03 -8.26629058E-04 -1.74422224E-04
  2.00887001E-04 -1.16649106E-10 -1.37358800E-03  1.58343878E-03  1.85753735E-09
 -1.29277955E-03  1.04137106E-03  1.45494566E-09  6.00194683E-04  9.73469275E-11
 -3.16835751E-10  5.51460247E-04  8.92274174E-04  2.68373085E-04  9.53192234E-10
 -9.69947518E-10 -5.60687903E-05  3.07772076E-04  9.73228787E-01 -9.42591260E-03
  5.14047190E-02 -4.99690800E-04 -4.32052688E-03  9.69327140E-04  1.31370931E-03
  4.10825850E-10 -2.04247076E-03  6.24085347E-04 -3.54200533E-10 -3.87398036E-03
 -1.01492470E-03 -1.60325778E-10 -1.43501886E-03  1.39006382E-04 -3.10130096E-10
 -3.57635488E-04 -2.05138907E-10  9.80317387E-12  4.27959947E-05 -2.28862279E-04
  7.44830227E-04  7.97888002E-10  5.15345688E-11 -1.37378202E-03 -1.40560255E-04
  7.99414451E-04  6.72558711E-10 -1.83625116E-09 -9.52963242E-04 -7.17508368E-06
 -1.68913387E-11  1.05505373E-04 -1.69928929E-04 -6.72258599E-11 -3.53849055E-11
  2.06635864E-04 -8.56832184E-05  6.89101867E-11  1.44893006E-04  4.49566527E-04
  4.68622760E-10  4.65041328E-10 -1.19096692E-03 -2.31898001E-04  2.15928721E-04
  1.45637339E-03 -2.80276897E-04 -3.86940817E-03  2.35559121E-03  2.81101660E-04
  5.88323236E-05  3.86540343E-10 -4.90063111E-03 -1.25653069E-03 -4.80780965E-09
 -4.33647124E-03  4.30943438E-04 -1.55225441E-08 -7.45544857E-04 -1.55534246E-04
 -1.45138362E-09 -3.00576918E-04 -2.14512830E-10 -6.30087543E-10  4.68851123E-04
  1.69138817E-04 -1.45108803E-03  2.71761397E-09 -9.23583764E-09  2.34484072E-03
 -3.09821823E-04 -8.02736543E-05 -1.22505380E-10  1.49479476E-08  1.24672519E-03
 -1.03096619E-03 -8.63177676E-11  1.82312410E-04 -4.27097118E-05  9.34364700E-10
 -5.22383279E-10 -3.19173970E-04 -1.88463927E-04  9.98132463E-10 -2.26071418E-04
 -6.97022066E-04  3.10898258E-09 -1.13930203E-09 -9.78404782E-05  1.71290805E-04
  3.13413783E-05  2.75759269E-03  2.50748029E-03  2.97733428E-04 -1.36816380E-05
 -2.11694305E-05  2.76755967E-05 -3.50700651E-04 -4.13669119E-04  8.00517679E-04
 -3.36767248E-04  1.44102787E-05  8.99510581E-04  8.67866247E-05  1.62127986E-05
 -4.66676969E-05 -6.72672313E-05 -2.65113618E-05  1.04819701E-04 -2.11530436E-04
 -5.59519655E-05 -2.80532934E-05  7.69304859E-06  3.13410077E-05  2.75761586E-03
  2.50750309E-03  2.97741163E-04 -1.36812616E-05 -2.11697438E-05 -2.76759944E-05
 -3.50712407E-04 -4.13699950E-04 -8.00510124E-04 -3.36764705E-04  1.43824338E-05
 -8.99512425E-04  8.67841303E-05 -1.62119020E-05  4.66700702E-05 -6.72683575E-05
 -2.65098970E-05  1.04817234E-04  2.11530177E-04  5.59549319E-05 -2.80545206E-05
  7.70027974E-06 -2.61946925E-05  1.53587968E-03  2.65215316E-03 -2.75680663E-04
 -3.55019838E-05  1.49585128E-05  5.96660521E-11 -3.04677027E-04  1.98522477E-04
 -9.85014286E-09 -1.21904780E-03  2.86709570E-04  7.05469045E-10  6.01963300E-06
  8.34345323E-10 -7.61010514E-10 -4.04224114E-05  5.29297222E-06  9.87981252E-06
  3.03840359E-09  9.36600683E-11  8.98966090E-05 -2.65335779E-05  4.34998055E-04
 -6.42058493E-03  1.23372505E-03  7.27984098E-04 -4.35599370E-04  2.41759137E-04
 -4.00221363E-09 -4.24128080E-03  1.11836293E-03 -4.11134299E-09  3.51516797E-05
 -6.78898089E-04  8.57041278E-09  2.57226328E-04  1.94883696E-10  1.68837727E-09
 -2.95299364E-04  6.49605056E-04  1.03511855E-04  9.32956349E-09  3.72456228E-09
 -3.57426860E-04  8.30977684E-04 -5.90008321E-06  5.46946667E-04  2.15623497E-04
  1.81117674E-02  1.00356746E-02  2.05055866E-04 -1.15873118E-04 -3.34857649E-10
  2.05560647E-04  1.38188529E-03  1.14263197E-09  6.38094764E-03  4.92768089E-03
  1.02289406E-09  2.06314675E-03  5.39427528E-04 -7.27098323E-09 -9.71116269E-05
  1.85760732E-10  3.41034161E-10  2.79194472E-04  7.70858821E-06 -4.82562633E-06
 -1.34948660E-09 -5.97284067E-10 -1.99567211E-03 -3.33213319E-04 -3.88361045E-04
 -8.23950101E-09 -3.20204758E-09 -2.60142815E-03  1.44767550E-03  2.22837022E-09
  1.60043668E-04 -1.91441013E-04  1.17265694E-09  1.68185097E-09  1.54854647E-04
 -1.00159859E-04 -1.04363011E-08  3.54034150E-04  4.53782416E-04 -6.42399329E-09
 -1.02145219E-08 -1.96542224E-03 -1.36197848E-03  9.77463383E-01  1.52164079E-02
  5.38567605E-02 -2.22577820E-02 -5.64686366E-03 -1.09107275E-03 -2.83333767E-05
  1.32688334E-09  5.48232129E-03 -8.04357378E-04 -8.70600628E-09  5.48849204E-03
 -1.49877447E-03 -3.28558932E-08  6.41559771E-04 -1.12375939E-04  3.00638032E-09
  1.13311369E-04  9.05031720E-10 -2.09916556E-09 -3.34693069E-04  1.37559136E-05
  1.58971235E-03 -6.46925043E-09 -1.04448639E-08 -1.48706219E-03 -1.22618747E-03
  1.60290337E-03  3.56761305E-09 -2.58671440E-08 -1.97060596E-03  1.59198234E-04
 -3.74192648E-08  7.25937758E-04  1.94016918E-03 -2.62882025E-08 -5.10506012E-09
 -1.50272930E-03  1.51356083E-04  8.55680770E-08 -2.73931015E-03 -5.23239509E-03
  7.01577337E-08 -1.06358234E-08  2.72128439E-03 -5.89569661E-04  1.08643650E-04
  2.44087297E-03 -1.53662137E-03 -1.12104499E-04  2.80701484E-04  3.76958488E-04
 -6.91118428E-04  1.59736528E-03  2.67148650E-03 -4.09315871E-03  1.90468985E-03
  1.49040280E-03 -1.63816153E-03 -7.59962915E-04  7.45008353E-04  1.01753167E-03
  1.86773987E-04 -4.60808550E-04 -1.08476459E-03  1.46698922E-03  1.52239639E-03
  4.08249932E-04 -1.07197215E-03  1.08644513E-04  2.44094573E-03 -1.53649678E-03
 -1.12110755E-04  2.80699918E-04  3.76968635E-04  6.91111749E-04  1.59735883E-03
  2.67153036E-03  4.09310392E-03  1.90467382E-03  1.49043405E-03  1.63811731E-03
 -7.59936709E-04 -7.45000341E-04 -1.01754836E-03  1.86788771E-04 -4.60818821E-04
 -1.08471904E-03 -1.46697403E-03 -1.52241870E-03  4.08270666E-04 -1.07199143E-03
 -4.20248563E-05  7.67891433E-04 -2.31342401E-03  8.07527845E-05  3.16726803E-04
 -8.59042984E-04  8.16429800E-09  1.12890672E-03 -5.72094943E-03  3.25000860E-08
  2.23296017E-03 -2.37405068E-03 -6.15532281E-11  7.39257959E-04 -5.87073806E-09
  2.02187201E-08  1.19569539E-03  8.83045945E-04  8.21513255E-04 -1.42419935E-08
  2.47234802E-08  1.87514061E-03  2.02487028E-03  9.11311887E-02  7.68639165E-02
 -5.63044210E-03 -1.29929704E-03  7.10769583E-03 -1.15512911E-02 -1.80817319E-09
  1.01295941E-02 -6.93788037E-03 -5.50394356E-09  9.97888611E-04  5.16849508E-03
 -1.03095385E-08 -1.60333935E-03 -4.30283122E-10  1.22646045E-09 -9.77830837E-04
 -2.97598826E-03 -1.38001957E-04 -1.06090421E-09  1.12827829E-09  2.73320850E-03
 -3.17101607E-04 -1.98111779E-01  4.52523431E-01  1.34788700E-01  2.82188704E-01
  3.00194538E-02  2.99997944E-02  5.20473456E-02  6.65699304E-09  4.25117654E-02
  6.21485635E-02  9.77397698E-09  1.97458217E-02  1.67761230E-02 -1.11386837E-09
 -1.42007840E-03  1.92366703E-03  6.81470379E-09 -3.72529656E-03 -2.74452159E-10
  5.46350203E-10  1.99898934E-04 -1.13451382E-03 -1.07451392E-02 -1.39201189E-09
  1.36217722E-09  6.78196910E-03 -2.11822801E-04  5.63833096E-04 -5.08761694E-09
  2.05005699E-09  2.61393593E-03  9.80806163E-04  6.68061359E-10 -1.23099925E-03
 -9.54969593E-04  2.54632895E-10  1.25034992E-10  2.38937747E-03  2.85629335E-04
 -4.45134984E-09 -1.61787433E-03  7.86565166E-05 -3.12831365E-09 -2.70870115E-09
  1.32111785E-03  2.71781413E-03 -6.87543543E-02  1.49568688E-01  3.92700165E-02
 -1.12705188E-02 -1.08335472E-02 -5.78038479E-02 -2.49902565E-03  5.88265629E-09
 -5.43959404E-02 -1.89684792E-03  1.55130041E-08 -1.55971462E-03 -2.47042817E-03
  6.98796407E-08  1.50209285E-03 -1.49667300E-03  2.17084795E-09 -4.62365636E-03
 -1.33489136E-09  2.12909943E-10  7.89532084E-03  7.74874064E-04 -7.07119795E-03
  5.80908912E-09  1.34733180E-08  1.03895124E-02  1.43392344E-03  4.44176746E-04
 -9.55014833E-09  3.45988774E-08 -1.98230058E-03 -2.79065957E-04 -2.46160552E-08
  2.70402287E-03  1.38387613E-03 -1.97148672E-08 -4.36412858E-10 -2.97189811E-03
 -2.48375176E-04  5.31985748E-08 -1.99615462E-04 -3.24446174E-03  4.67544003E-08
  7.77100784E-09 -5.59394549E-04 -1.58497504E-03  1.38495289E-02  1.87667011E-02
  6.98114446E-03  1.47200146E-03 -1.26352939E-03 -6.25734314E-04  1.05261557E-03
 -2.30213592E-03  2.79430141E-04 -1.10651601E-03  1.01207205E-03  1.45264438E-04
 -4.16478143E-04 -2.47169684E-04 -6.24550300E-04 -7.72702348E-05  4.55959700E-04
  3.68114976E-04 -1.17061445E-03  1.49464314E-03  1.38173166E-03  1.94814980E-04
 -1.03741043E-03  1.38495305E-02  1.87666473E-02  6.98094912E-03  1.47201469E-03