Title                                                                   
Freq      RPW91PW91                                                   6-311G(d,p)         
Number of atoms                            I                4
Info1-9                                    I   N=           9
          17          17        1002           0           0         100
           6          18         802
Full Title                                 C   N=           1
Title       
Route                                      C   N=           6
#P PW91PW91/6-311G(d,p) Opt(Z-matrix) Freq=SaveNM PoP=Full N
osymm       
Charge                                     I                0
Multiplicity                               I                1
Number of electrons                        I               10
Number of alpha electrons                  I                5
Number of beta electrons                   I                5
Number of basis functions                  I               36
Number of independent functions            I               36
Number of point charges in /Mol/           I                0
Number of translation vectors              I                0
Atomic numbers                             I   N=           4
           7           1           1           1
Nuclear charges                            R   N=           4
  7.00000000E+00  1.00000000E+00  1.00000000E+00  1.00000000E+00
Current cartesian coordinates              R   N=          12
  0.00000000E+00  0.00000000E+00  0.00000000E+00  0.00000000E+00  0.00000000E+00
  1.93224496E+00  1.86008599E+00  0.00000000E+00 -5.23116331E-01 -6.89166176E-01
 -1.72770654E+00 -5.23116331E-01
Number of symbols in /Mol/                 I                0
Int Atom Types                             I   N=           4
           0           0           0           0
Force Field                                I                0
Atom Types                                 C   N=           4
                                                
MM charges                                 R   N=           4
  0.00000000E+00  0.00000000E+00  0.00000000E+00  0.00000000E+00
Integer atomic weights                     I   N=           4
          14           1           1           1
Real atomic weights                        R   N=           4
  1.40030740E+01  1.00782504E+00  1.00782504E+00  1.00782504E+00
Atom fragment info                         I   N=           4
           0           0           0           0
Atom residue num                           I   N=           4
           0           0           0           0
Nuclear spins                              I   N=           4
           2           1           1           1
Nuclear ZEff                               R   N=           4
 -4.55000000E+00 -1.00000000E+00 -1.00000000E+00 -1.00000000E+00
Nuclear ZNuc                               R   N=           4
  7.00000000E+00  1.00000000E+00  1.00000000E+00  1.00000000E+00
Nuclear QMom                               R   N=           4
  2.04400000E+00  0.00000000E+00  0.00000000E+00  0.00000000E+00
Nuclear GFac                               R   N=           4
  4.03761000E-01  2.79284600E+00  2.79284600E+00  2.79284600E+00
MicOpt                                     I   N=           4
          -1          -1          -1          -1
Number of residues                         I                0
Number of secondary structures             I                0
SymInf integers                            I   N=          26
           2           2           1           1           1           1
           1          -1           0           0           0           0
           0           0           0           0           0           0
           0           0           0           0           0           0
           0           0
RotTr to input orientation                 R   N=          12
  2.19228136E-01 -3.23473801E-01 -9.20491024E-01 -5.16418304E-01  7.61981535E-01
 -3.90763708E-01  8.27798985E-01  5.61024812E-01 -4.95070160E-13  1.17091982E-01
 -1.72770654E-01  8.86012301E-02
Number of contracted shells                I               17
Number of primitive shells                 I               30
Pure/Cartesian d shells                    I                0
Pure/Cartesian f shells                    I                0
Highest angular momentum                   I                2
Largest degree of contraction              I                6
Shell types                                I   N=          17
           0          -1          -1          -1          -2           0
           0           0           1           0           0           0
           1           0           0           0           1
Number of primitives per shell             I   N=          17
           6           3           1           1           1           3
           1           1           1           3           1           1
           1           3           1           1           1
Shell to atom map                          I   N=          17
           1           1           1           1           1           2
           2           2           2           3           3           3
           3           4           4           4           4
Primitive exponents                        R   N=          30
  6.29348000E+03  9.49044000E+02  2.18776000E+02  6.36916000E+01  1.88282000E+01
  2.72023000E+00  3.06331000E+01  7.02614000E+00  2.11205000E+00  6.84009000E-01
  2.00878000E-01  9.13000000E-01  3.38650000E+01  5.09479000E+00  1.15879000E+00
  3.25840000E-01  1.02741000E-01  7.50000000E-01  3.38650000E+01  5.09479000E+00
  1.15879000E+00  3.25840000E-01  1.02741000E-01  7.50000000E-01  3.38650000E+01
  5.09479000E+00  1.15879000E+00  3.25840000E-01  1.02741000E-01  7.50000000E-01
Contraction coefficients                   R   N=          30
  1.96978815E-03  1.49612859E-02  7.35005308E-02  2.48936766E-01  6.02459433E-01
  2.56201759E-01  1.11906080E-01  9.21666655E-01 -2.56919183E-03  1.00000000E+00
  1.00000000E+00  1.00000000E+00  2.54938145E-02  1.90373109E-01  8.52161486E-01
  1.00000000E+00  1.00000000E+00  1.00000000E+00  2.54938145E-02  1.90373109E-01
  8.52161486E-01  1.00000000E+00  1.00000000E+00  1.00000000E+00  2.54938145E-02
  1.90373109E-01  8.52161486E-01  1.00000000E+00  1.00000000E+00  1.00000000E+00
P(S=P) Contraction coefficients            R   N=          30
  0.00000000E+00  0.00000000E+00  0.00000000E+00  0.00000000E+00  0.00000000E+00
  0.00000000E+00  3.83119186E-02  2.37403116E-01  8.17592398E-01  1.00000000E+00
  1.00000000E+00  0.00000000E+00  0.00000000E+00  0.00000000E+00  0.00000000E+00
  0.00000000E+00  0.00000000E+00  0.00000000E+00  0.00000000E+00  0.00000000E+00
  0.00000000E+00  0.00000000E+00  0.00000000E+00  0.00000000E+00  0.00000000E+00
  0.00000000E+00  0.00000000E+00  0.00000000E+00  0.00000000E+00  0.00000000E+00
Coordinates of each shell                  R   N=          51
  0.00000000E+00  0.00000000E+00  0.00000000E+00  0.00000000E+00  0.00000000E+00
  0.00000000E+00  0.00000000E+00  0.00000000E+00  0.00000000E+00  0.00000000E+00
  0.00000000E+00  0.00000000E+00  0.00000000E+00  0.00000000E+00  0.00000000E+00
  0.00000000E+00  0.00000000E+00  1.93224496E+00  0.00000000E+00  0.00000000E+00
  1.93224496E+00  0.00000000E+00  0.00000000E+00  1.93224496E+00  0.00000000E+00
  0.00000000E+00  1.93224496E+00  1.86008599E+00  0.00000000E+00 -5.23116331E-01
  1.86008599E+00  0.00000000E+00 -5.23116331E-01  1.86008599E+00  0.00000000E+00
 -5.23116331E-01  1.86008599E+00  0.00000000E+00 -5.23116331E-01 -6.89166176E-01
 -1.72770654E+00 -5.23116331E-01 -6.89166176E-01 -1.72770654E+00 -5.23116331E-01
 -6.89166176E-01 -1.72770654E+00 -5.23116331E-01 -6.89166176E-01 -1.72770654E+00
 -5.23116331E-01
Num ILSW                                   I              100
ILSW                                       I   N=         100
           0           0           0           0           2           0
           0           0           0           0         608          -1
           5           0           0           0           2           0
           0           0           0           0           1           0
           1           1           0           0           0           0
           0           0      100000           0          -1           0
           0           0           0           0           0           0
           0           0           0           1           0           0
           0 -2000000000           1           0           0           0
           0           0           4          52           0           0
           0           0           0           0           0           0
           0           0           0           4           0           1
           0           0           0           0           0           0
           0           0           0           0           0           0
           0           0           0           0           0           0
           0           0           0           0           0           0
           0           0           0           0
Num RLSW                                   I               52
RLSW                                       R   N=          52
  1.00000000E+00  1.00000000E+00  1.00000000E+00  1.00000000E+00  0.00000000E+00
  0.00000000E+00  0.00000000E+00  1.00000000E+00  0.00000000E+00  0.00000000E+00
  0.00000000E+00  0.00000000E+00  1.00000000E+00  0.00000000E+00  0.00000000E+00
  0.00000000E+00  0.00000000E+00  1.00000000E+00  0.00000000E+00  0.00000000E+00
  0.00000000E+00  0.00000000E+00  1.00000000E+00  0.00000000E+00  0.00000000E+00
  0.00000000E+00  0.00000000E+00  1.00000000E+00  0.00000000E+00  0.00000000E+00
  0.00000000E+00  0.00000000E+00  1.00000000E+00  0.00000000E+00  0.00000000E+00
  0.00000000E+00  0.00000000E+00  0.00000000E+00  1.00000000E+00  1.00000000E+00
  0.00000000E+00  1.00000000E+00  0.00000000E+00  0.00000000E+00  0.00000000E+00
  0.00000000E+00  0.00000000E+00  0.00000000E+00  0.00000000E+00  0.00000000E+00
  0.00000000E+00  0.00000000E+00
MxBond                                     I                3
NBond                                      I   N=           4
           3           1           1           1
IBond                                      I   N=          12
           2           3           4           1           0           0
           1           0           0           1           0           0
RBond                                      R   N=          12
  1.00000000E+00  1.00000000E+00  1.00000000E+00  1.00000000E+00  0.00000000E+00
  0.00000000E+00  1.00000000E+00  0.00000000E+00  0.00000000E+00  1.00000000E+00
  0.00000000E+00  0.00000000E+00
Virial Ratio                               R      2.002588636359181E+00
SCF Energy                                 R     -5.654674804146317E+01
Total Energy                               R     -5.654674804146317E+01
RMS Force                                  R      4.821806696534117E-05
RMS Density                                R      1.943932321619975E-10
NImag                                      I                0
Job Status                                 I                1
Nuclear derivative order                   I                2
Thermal Energy                             R     -5.651029538542570E+01
Thermal Enthalpy                           R     -5.650935120061206E+01
Thermal Free Energy                        R     -5.653225246635744E+01
External E-field                           R   N=          35
  0.00000000E+00  0.00000000E+00  0.00000000E+00  0.00000000E+00  0.00000000E+00
  0.00000000E+00  0.00000000E+00  0.00000000E+00  0.00000000E+00  0.00000000E+00
  0.00000000E+00  0.00000000E+00  0.00000000E+00  0.00000000E+00  0.00000000E+00
  0.00000000E+00  0.00000000E+00  0.00000000E+00  0.00000000E+00  0.00000000E+00
  0.00000000E+00  0.00000000E+00  0.00000000E+00  0.00000000E+00  0.00000000E+00
  0.00000000E+00  0.00000000E+00  0.00000000E+00  0.00000000E+00  0.00000000E+00
  0.00000000E+00  0.00000000E+00  0.00000000E+00  0.00000000E+00  0.00000000E+00
IOpCl                                      I                0
IROHF                                      I                0
Alpha Orbital Energies                     R   N=          36
 -1.39565304E+01 -7.68125930E-01 -4.04100019E-01 -4.03999940E-01 -2.10501945E-01
  1.67425713E-02  9.33340296E-02  9.33397884E-02  3.08344095E-01  3.08436591E-01
  4.34804809E-01  5.57960903E-01  6.71349658E-01  6.71365432E-01  8.51547371E-01
  1.05133826E+00  1.05160129E+00  1.46486987E+00  1.48025888E+00  1.57942853E+00
  1.57959778E+00  1.78073066E+00  1.78088970E+00  2.05522563E+00  2.32388655E+00
  2.32417823E+00  2.46780660E+00  2.55217113E+00  2.55227694E+00  2.69174617E+00
  2.95184634E+00  2.95207040E+00  3.85280422E+00  4.58650198E+00  4.58694966E+00
  3.52491584E+01
Alpha MO coefficients                      R   N=        1296
  5.57882702E-01  4.64774624E-01  6.33345996E-04 -9.34508719E-04  4.79777706E-04
  1.65851191E-02  8.96351686E-04 -1.32257896E-03  6.78183914E-04 -1.90124849E-03
  3.84319118E-04 -5.67067099E-04  2.90687888E-04  2.21594046E-04 -2.86395993E-04
  4.22581273E-04  2.22053375E-04  5.56676841E-04 -1.05438524E-04 -2.71623873E-03
  9.24566050E-04 -5.72629367E-05  8.44920775E-05  2.15898539E-03 -1.05656922E-04
 -2.71600135E-03  9.24078076E-04  2.06277549E-03  8.44489258E-05 -6.39551030E-04
 -1.05657007E-04 -2.71600145E-03  9.24078315E-04 -8.42701952E-04 -1.88468262E-03
 -6.39551003E-04 -1.11612445E-01 -1.73603463E-01  2.70056146E-02 -3.98471187E-02
  2.04352014E-02  4.78672786E-01  4.03209520E-02 -5.94940756E-02  3.05131903E-02
  3.15124124E-01  1.75786475E-02 -2.59375100E-02  1.33054753E-02  1.26812286E-03
 -1.64154142E-03  2.42212448E-03  1.27120797E-03  3.18686057E-03  9.35342286E-02
  8.91272527E-02  7.28274816E-03  1.81363324E-03 -2.67604083E-03 -1.99527026E-02
  9.35468099E-02  8.91401042E-02  7.28471491E-03 -1.87189581E-02 -2.67833787E-03
  7.14614843E-03  9.35468027E-02  8.91400959E-02  7.28471583E-03  9.42313099E-03
  1.63944278E-02  7.14613166E-03 -1.63542675E-05 -2.59701602E-05 -4.85335939E-02
  7.16403994E-02  2.03588463E-01  7.24313850E-05 -6.97982039E-02  1.03029068E-01
  2.92801524E-01  1.20359431E-04 -4.41950690E-02  6.52363002E-02  1.85422710E-01
  2.38247116E-02  7.11423438E-03 -1.04973199E-02  7.40387787E-04  1.85084681E-03
  1.75378033E-01  2.33414688E-01  1.22585731E-01 -1.68109093E-03  2.48293068E-03
 -1.73388103E-02 -8.76901234E-02 -1.16738432E-01 -6.12863171E-02  1.22874418E-02
  8.05113916E-03  1.16552373E-02 -8.77120519E-02 -1.16767647E-01 -6.13016325E-02
 -1.20303465E-02 -8.43211207E-03  1.16537690E-02  4.31454013E-09  8.31758721E-09
  1.83133515E-01  1.24107638E-01 -1.46872196E-05 -3.15464908E-08  2.63385147E-01
  1.78493321E-01 -2.11239583E-05  1.78723749E-08  1.66836118E-01  1.13063040E-01
 -1.33727125E-05 -1.72720468E-06 -1.08117763E-03 -7.31648549E-04  2.51122593E-02
 -1.00172121E-02 -1.26638206E-05 -1.68793324E-05 -8.85898622E-06  1.58271331E-02
  1.07262746E-02  1.25494943E-06  1.51882188E-01  2.02171160E-01  1.06227333E-01
 -1.27046590E-02  7.51125957E-03  1.02825645E-02 -1.51869504E-01 -2.02154326E-01
 -1.06218468E-01  2.27133440E-03 -1.45822181E-02 -1.02842331E-02 -4.23778784E-02
 -6.74705305E-02 -1.34339098E-01  1.98219003E-01 -1.01784114E-01  1.99191761E-01
 -1.83434919E-01  2.70660527E-01 -1.38983219E-01  2.56785623E-01 -2.38646583E-01
  3.52126008E-01 -1.80791545E-01  5.64817963E-03 -7.30183989E-03  1.07739515E-02
  5.67595131E-03  1.42293403E-02 -4.48794929E-02 -2.88758377E-02 -3.94121241E-02
 -1.29482168E-02  1.91052567E-02 -3.10339208E-03 -4.48562668E-02 -2.88343680E-02
 -3.93818383E-02 -6.49522106E-03  1.91094403E-02 -1.16248285E-02 -4.48562834E-02
 -2.88343868E-02 -3.93818686E-02 -1.53429390E-02  1.31130644E-02 -1.16248207E-02
 -5.31523934E-02 -8.35000976E-02  4.19536706E-02 -6.19031627E-02  3.17657546E-02
  2.01681178E-01  6.81654831E-02 -1.00579019E-01  5.16091844E-02  1.19439129E+00
  1.25584720E-01 -1.85301757E-01  9.50904577E-02 -8.92308767E-04  1.14891758E-03
 -1.69524055E-03 -8.94682325E-04 -2.24293308E-03 -3.10394316E-02 -6.80238971E-02
 -6.34313014E-01  2.17514679E-03 -3.20946143E-03 -8.88683763E-03 -3.10196383E-02
 -6.79543205E-02 -6.34315507E-01 -7.96717684E-03 -3.20447172E-03  4.50252165E-03
 -3.10196474E-02 -6.79542590E-02 -6.34315569E-01  5.92826829E-03  6.21291155E-03
  4.50252165E-03  8.16984529E-06  1.31492380E-05  3.96249064E-02 -5.82350300E-02
 -1.65760839E-01 -3.92994077E-05  4.64724234E-02 -6.82985245E-02 -1.94409628E-01
 -1.10863317E-04  1.54946813E-01 -2.27718601E-01 -6.48179923E-01  6.94698986E-03
 -3.71363660E-03  5.49562836E-03 -3.03708689E-03 -7.61029349E-03  4.13122780E-02
  5.32729964E-02  1.67093324E+00  1.90022824E-03 -2.79544079E-03  3.07720152E-02
 -2.06613953E-02 -2.66148216E-02 -8.36478821E-01 -1.63461682E-02 -1.74426724E-03
 -1.21889834E-03 -2.06096462E-02 -2.65479513E-02 -8.34387165E-01  7.66853628E-03
  1.45002713E-02 -1.23078237E-03 -6.79483645E-09 -9.89091269E-09  1.49078190E-01
  1.01096354E-01  1.19792500E-04  2.82150853E-08  1.74850081E-01  1.18573383E-01
  1.40501828E-04  7.18263436E-08  5.82910512E-01  3.95296860E-01  4.68397234E-04
 -5.02038849E-06  1.03546271E-02  7.01185623E-03 -1.68610577E-03  6.78944912E-04
 -2.98595893E-05 -3.85356082E-05 -1.20743684E-03  5.37822874E-03  3.64793932E-03
 -2.22387395E-05 -3.57955167E-02 -4.62013303E-02 -1.44662754E+00 -2.53591711E-02
  4.24357633E-03  8.22085797E-03  3.58253457E-02  4.62398553E-02  1.44783488E+00
 -5.46514483E-03 -2.51476350E-02 -8.21908193E-03  5.40215730E-09  9.35419131E-09
  6.84733165E-02  4.64069543E-02  9.42807955E-07 -1.86712047E-08  1.30304231E-01
  8.83121382E-02  1.79190543E-06 -2.45467376E-07  8.46248268E-01  5.73534474E-01
  1.14922964E-05 -1.93257921E-07  1.57684089E-02  1.06866417E-02 -9.24564174E-03
  3.68816127E-03 -1.55258589E-06 -1.76049896E-05  1.03003002E-05  2.73739033E-02
  1.85522981E-02  3.60986028E-07 -1.10664378E-01 -1.25547293E+00  7.31917976E-01
  2.70624311E-02  1.70753100E-02  1.07575943E-03  1.10665942E-01  1.25549108E+00
 -7.31928393E-01  2.58865809E-02  1.88102888E-02 -1.07504198E-03  1.88030644E-05
  3.16917938E-05  1.81519662E-02 -2.67816190E-02 -7.61840272E-02 -8.80632044E-05
  3.45490520E-02 -5.09740752E-02 -1.45005073E-01 -4.64965948E-04  2.24381385E-01
 -3.31055199E-01 -9.41730739E-01  1.67746708E-02 -3.66527013E-03  5.40857484E-03
 -4.34308710E-03 -1.08875565E-02  1.27794329E-01  1.45065118E+00 -8.44723933E-01
  6.13485344E-03 -9.05132245E-03 -2.97772160E-02 -6.38167426E-02 -7.24588330E-01
  4.22014161E-01  7.07397551E-03 -1.15067350E-02 -2.98072957E-02 -6.38140198E-02
 -7.24557629E-01  4.21996320E-01  8.06753891E-03 -1.08333541E-02 -2.98073314E-02
 -5.43204379E-02 -9.31043982E-02  2.89003438E-02 -4.26427897E-02  2.17984914E-02
  2.91553649E-01  6.51312066E-02 -9.61018939E-02  4.91195592E-02  1.48425449E+00
  4.13013586E-01 -6.09406419E-01  3.11720678E-01 -8.38425893E-03  1.08416534E-02
 -1.59969789E-02 -8.41733243E-03 -2.11018138E-02 -8.73440026E-02 -1.39373992E+00
  4.45428208E-01  1.74027520E-02 -2.56779592E-02  1.45644267E-02 -8.74001534E-02
 -1.39522421E+00  4.45848452E-01  1.87706886E-02 -2.55826320E-02  1.27897732E-02
 -8.74001055E-02 -1.39522398E+00  4.45848313E-01  1.68073605E-02 -2.69132604E-02
  1.27897649E-02  7.95082519E-03  1.33241548E-02  1.41127431E-01 -2.08235222E-01
  1.06895008E-01  5.50245140E-02  4.08302516E-01 -6.02455295E-01  3.09304076E-01
 -1.05684228E+00 -7.35486003E-01  1.08521844E+00 -5.56813172E-01 -6.64004671E-03
  8.59118214E-03 -1.26763973E-02 -6.66680020E-03 -1.67133550E-02 -1.52816030E-02
  3.47947010E-01  1.64088822E-01  1.23382586E-02 -1.82052483E-02 -8.35240009E-02
 -1.52841388E-02  3.48138227E-01  1.64166790E-01 -7.70981454E-02 -1.82429495E-02
  3.44870580E-02 -1.52841576E-02  3.48138280E-01  1.64166590E-01  4.55096727E-02
  6.48521349E-02  3.44870620E-02  1.88849899E-06  2.80411614E-06  6.13658406E-02
 -9.06014448E-02 -2.57520322E-01  5.13824294E-05  1.70553942E-01 -2.51808430E-01
 -7.15827974E-01 -5.78086529E-04 -4.01966417E-01  5.93469079E-01  1.68624347E+00
  4.79724567E-02  3.20707233E-03 -4.73717720E-03 -4.74763776E-03 -1.19149002E-02
  5.47726791E-02 -1.36724522E-01 -1.30461672E+00  5.22869920E-03 -7.71937414E-03
  1.51012143E-01 -2.73740551E-02  6.87661750E-02  6.52180352E-01 -7.77386836E-02
 -6.90146313E-03  2.64715585E-03 -2.73845900E-02  6.87924860E-02  6.52431376E-01
  3.52202397E-02  6.96758990E-02  2.65598676E-03 -6.80904036E-10 -3.01420535E-09
 -2.31625174E-01 -1.56964827E-01  2.86072308E-05  2.74738728E-08 -6.43929632E-01
 -4.36370144E-01  7.95435041E-05 -7.31827334E-08  1.51645518E+00  1.02765219E+00
 -1.87323772E-04 -5.32464902E-06 -2.14162400E-02 -1.45136760E-02  3.97223697E-02
 -1.58433484E-02 -6.07492659E-06  1.52152916E-05  1.44886284E-04 -1.83109925E-02
 -1.24086731E-02 -1.67807376E-05  4.74408114E-02 -1.18366940E-01 -1.13003745E+00
  1.24615206E-01 -1.29424595E-02 -3.98633216E-02 -4.74347501E-02  1.18351716E-01
  1.12989263E+00  3.41410331E-02  1.20526290E-01  3.98627304E-02  1.06038977E-01
  2.04030428E-01 -1.28474083E-02  1.89564954E-02 -9.75460234E-03 -1.69753363E+00
  9.60990298E-02 -1.41795361E-01  7.26182790E-02  4.30096200E+00  3.52641062E-01
 -5.20326107E-01  2.66428129E-01 -2.39016426E-03  3.12416364E-03 -4.60974837E-03
 -2.40433558E-03 -6.02755914E-03  2.07074082E-02 -9.57653880E-01 -4.18150652E-01
  4.42033703E-02 -6.52226237E-02  2.50240432E-01  2.07115131E-02 -9.58322334E-01
 -4.17925230E-01  2.52910935E-01 -6.48585362E-02 -2.52085222E-02  2.07115381E-02
 -9.58322323E-01 -4.17925202E-01 -3.34614512E-02 -2.58941912E-01 -2.52085239E-02
 -4.14061260E-05 -8.68552725E-05  4.14472697E-03 -6.11347501E-03 -1.72675525E-02
  7.24596030E-04  1.19802391E-02 -1.76709017E-02 -4.99311824E-02 -1.25109930E-03
  8.28289534E-02 -1.22172732E-01 -3.47388196E-01 -2.21256491E-02  1.03060239E-01
 -1.52092614E-01  6.09534508E-02  1.52822757E-01 -3.52125914E-02  2.99957750E-01
 -1.82172403E-03  2.69841430E-01 -3.98210576E-01 -2.82109888E-02  1.77059973E-02
 -1.49749341E-01  1.12014724E-03  7.41335453E-02  4.42564270E-01  2.11298414E-01
  1.77021716E-02 -1.49716664E-01  1.11995707E-03 -4.38514760E-01  9.50926622E-02
  2.11352857E-01  1.09647627E-09  2.17520371E-09 -1.55408373E-02 -1.05330472E-02
 -1.07325016E-06  3.14688597E-10 -4.47850361E-02 -3.03538192E-02 -3.13708042E-06
  1.80499062E-08 -3.12360839E-01 -2.11707840E-01 -2.19254161E-05 -1.40545490E-06
  1.91054810E-01  1.29469730E-01  8.36210759E-02 -3.33444863E-02 -2.22261456E-06
  1.89064202E-05 -1.15914904E-07  4.14075931E-01  2.80595293E-01 -1.78478325E-06
 -3.05256717E-02  2.59454973E-01 -1.64670824E-03  9.59388056E-02 -2.04985018E-01
  4.31034358E-01  3.05279722E-02 -2.59474036E-01  1.64687281E-03 -1.54906387E-01
  1.65070455E-01 -4.31007715E-01 -4.39418306E-08 -9.27439018E-08  4.49622716E-06
  3.11946594E-06 -4.14272653E-08  8.86126104E-07  3.33803953E-04  2.26247549E-04
 -9.16992572E-10 -2.40345081E-06 -1.24145921E-03 -8.40093428E-04 -6.29807955E-07
 -1.28413483E-07  1.43328762E-04  9.68419556E-05 -1.68218656E-04  6.68151608E-05
 -5.61601784E-08  1.11351735E-06  6.51616642E-09  5.12941537E-01  3.47635725E-01
  8.30637296E-08 -1.53943490E-04  9.18860270E-04 -3.34540650E-05 -1.38395379E-01
 -3.46350633E-01 -4.93526102E-01  1.53884951E-04 -9.17013615E-04  3.34866481E-05
 -3.72976462E-01 -2.22947034E-04  4.93526838E-01  4.08756277E-02  8.66761631E-02
  3.58726778E-02 -5.29305190E-02  2.71760388E-02 -8.36686773E-01  6.91958841E-03
 -1.02099033E-02  5.12189646E-03  2.27795055E+00  6.00960047E-01 -8.86724300E-01
  4.55200125E-01  9.62472657E-02 -1.24354446E-01  1.83486596E-01  9.65483165E-02
  2.42042292E-01  2.85638668E-02 -9.22351787E-01 -1.79804746E-02 -2.97161418E-01
  4.38466575E-01 -6.60651984E-02  2.84121120E-02 -9.22098090E-01 -1.81161413E-02
 -1.43803066E-01  4.38105224E-01 -2.68287698E-01  2.84123870E-02 -9.22098759E-01
 -1.81159014E-02 -3.53647178E-01  2.95887819E-01 -2.68286590E-01  3.22543830E-06
  6.35691376E-06 -5.44874463E-04  8.03277637E-04  2.34589789E-03 -1.55175369E-04
 -1.36422259E-02  2.01136589E-02  5.73618834E-02  1.04648977E-03  2.36510346E-01
 -3.48704958E-01 -9.90255773E-01 -2.26624963E-01  5.56928843E-03 -8.25904895E-03
  3.41512969E-02  8.55471643E-02 -3.04116369E-01  1.06932863E+00 -1.80943409E-01
 -3.43521920E-01  5.06730120E-01  1.36120775E-01  1.52099240E-01 -5.35476035E-01
  9.04667945E-02  9.03093496E-02  2.02645652E-02  5.72164349E-01  1.52025075E-01
 -5.35215772E-01  9.04225327E-02 -5.24476696E-02 -7.63372416E-02  5.72138101E-01
  9.90922007E-09  2.06257515E-08 -2.11232312E-03 -1.43173939E-03 -3.24666138E-07
 -1.55497160E-07 -5.14037538E-02 -3.48420086E-02 -8.03684274E-06  2.47557416E-07
  8.90203967E-01  6.03389758E-01  1.39035312E-04  3.17860974E-05 -1.37245923E-01
 -9.30140309E-02  1.67595276E-01 -6.68660738E-02  4.26845989E-05 -1.50192143E-04
  2.53585639E-05 -4.65336606E-01 -3.15476598E-01 -1.91119012E-05  2.63742617E-01
 -9.26590745E-01  1.57155260E-01 -9.62586120E-02 -5.97073492E-01  9.27799698E-02
 -2.63785172E-01  9.26740494E-01 -1.57180548E-01 -5.90230165E-01  1.31830713E-01
 -9.29406602E-02  7.60755574E-09  1.70329201E-08 -1.27229093E-01 -8.62273788E-02
 -6.48705142E-07 -1.31513702E-07 -2.63749833E-01 -1.78752041E-01 -1.34080400E-06
  2.07844031E-07 -1.56019157E-01 -1.05739457E-01 -6.09663432E-07  1.90595983E-06
 -9.08912106E-02 -6.16005225E-02  3.97119098E-01 -1.58407268E-01  2.53587650E-06
 -3.09347021E-06  2.65904241E-06  2.81146196E-01  1.90543235E-01 -2.14630769E-06
  4.71322552E-01 -5.46435774E-01  5.02628114E-01 -3.90162115E-01  3.41107092E-01
  8.27179198E-02 -4.71324973E-01  5.46438506E-01 -5.02630722E-01  1.72273756E-01
 -4.88778240E-01 -8.27157355E-02  1.12393116E-05  2.93002171E-05 -3.37291705E-02
  4.97665723E-02  1.41541918E-01 -2.69890646E-04 -6.99547592E-02  1.03216535E-01
  2.93155279E-01 -6.24405789E-05 -4.12445591E-02  6.08552605E-02  1.73052601E-01
 -4.15487213E-01 -8.23889984E-02  1.21565115E-01  1.05885347E-02  2.65397931E-02
 -5.44729314E-01  6.31857302E-01 -5.80487059E-01  1.92304118E-01 -2.83744289E-01
  4.59359076E-01  2.72088277E-01 -3.15451308E-01  2.90101961E-01 -3.13151276E-01
 -2.28845385E-02 -2.64556298E-01  2.72084070E-01 -3.15446497E-01  2.90097469E-01
  1.37280766E-01  2.82381564E-01 -2.64556965E-01 -2.39654817E-02 -3.24088908E-02
  9.86073255E-02 -1.45496322E-01  7.45993209E-02  2.68671245E-02 -1.22452901E-02
  1.80680064E-02 -9.41607151E-03 -3.90649724E-01 -1.56417231E-02  2.30795813E-02
 -1.14570688E-02 -9.32032407E-02  1.20728424E-01 -1.78136288E-01 -9.35565057E-02
 -2.34541738E-01 -7.65746820E-01  1.06691801E+00 -3.27872480E-01 -1.25745160E-01
  1.85538523E-01  1.07094207E-01 -7.65801209E-01  1.06709470E+00 -3.27851864E-01
  6.92976663E-02  1.85265769E-01 -1.50143756E-01 -7.65801261E-01  1.06709476E+00
 -3.27851906E-01 -1.97755677E-01  4.27549195E-03 -1.50143820E-01 -4.21582929E-05
 -1.08096570E-04 -4.54217721E-04  6.70385118E-04  2.05978095E-03  6.88642395E-04
  2.50906847E-01 -3.70314309E-01 -1.05107043E+00  3.23388985E-03  1.21340643E-01
 -1.79086795E-01 -5.05536686E-01 -3.69387517E-01 -3.58825398E-02  5.29602196E-02
  3.00133423E-02  7.52864496E-02 -9.13774824E-01  2.40151468E+00 -5.69235505E-01
 -1.23429871E-02  1.82139984E-02 -1.25406602E+00  4.57774728E-01 -1.20398598E+00
  2.84822240E-01  6.10231188E-01  1.50814184E-03 -1.50233376E-01  4.57851139E-01
 -1.20418680E+00  2.84869845E-01 -2.27528439E-01 -5.66337744E-01 -1.50261558E-01
 -1.10002580E-08 -2.62826622E-08  1.86587035E-03  1.26448546E-03 -9.64880743E-08
  1.78440958E-07 -9.45185394E-01 -6.40555277E-01  5.07626532E-05  5.11714442E-07
 -4.54324883E-01 -3.07897631E-01  2.44947509E-05  1.77790249E-05  1.45607776E-01
  9.86790106E-02 -3.16561064E-01  1.26269015E-01  4.42153382E-05 -1.16332772E-04
  2.75055235E-05  1.68360333E-02  1.14091664E-02  6.06814051E-05 -7.92108146E-01
  2.08151546E+00 -4.93460213E-01 -1.04663409E+00  2.08078474E-02  2.92022604E-01
  7.92064233E-01 -2.08140023E+00  4.93432780E-01 -3.68431670E-01 -9.79801731E-01
 -2.92008347E-01 -2.28961831E-02 -6.15447048E-02  4.10450987E-02 -6.05625399E-02
  3.11207444E-02  3.92330903E-01  1.70156559E-01 -2.51067613E-01  1.30109186E-01
  2.31095926E+00  5.84227837E-01 -8.62035098E-01  4.41961094E-01 -1.86543494E-01
  2.40696181E-01 -3.55150251E-01 -1.88742965E-01 -4.73169768E-01  4.99079829E-01
 -1.62696828E+00  1.29838908E-01 -2.80264138E-01  4.13533174E-01  4.80007391E-01
  4.97659129E-01 -1.62378820E+00  1.28760157E-01  3.84197233E-01  4.15137190E-01
 -3.98999835E-01  4.97658754E-01 -1.62378720E+00  1.28759925E-01 -5.27938282E-01
 -2.03044745E-01 -3.98999697E-01 -2.28074746E-10  4.49858813E-09  5.13753192E-02
  3.48178494E-02 -1.51831105E-06 -2.58567250E-08  2.05693999E-02  1.39402264E-02
 -6.26751726E-07 -1.25598157E-07  4.26293919E-01  2.88906065E-01 -1.26714090E-05
  3.84885639E-07  8.42715050E-01  5.71161621E-01  4.59394993E-01 -1.83269524E-01
  1.81205022E-07  7.51876988E-06  2.67652763E-06 -4.90811307E-01 -3.32648418E-01
 -2.37759787E-06 -7.57269433E-03 -2.40120737E-01 -8.75698842E-02 -3.57776909E-02
  6.70202468E-02 -4.09010400E-01  7.57237857E-03  2.40113536E-01  8.75671709E-02
  4.89712843E-02 -5.80608143E-02  4.09026960E-01  1.03172200E-04  2.62781468E-04
  1.34682636E-02 -1.98755663E-02 -5.71231995E-02 -1.75394931E-03  4.64226280E-03
 -6.85096289E-03 -2.26816753E-02 -7.94699453E-03  1.11158557E-01 -1.64040375E-01
 -4.74850893E-01  1.44485541E-02 -4.82774131E-01  7.12290784E-01 -2.72451777E-01
 -6.82987800E-01  7.50321141E-03  2.81385175E-01  1.00897662E-01  1.83148746E-01
 -2.70210033E-01 -8.90264301E-02 -6.30247619E-03 -1.32279719E-01 -5.10804414E-02
  1.30661873E-01  4.21711851E-01  3.10672764E-01 -6.30282653E-03 -1.32292730E-01
 -5.10850795E-02 -4.40112451E-01  3.48853494E-02  3.10650930E-01 -7.47043433E-02
 -1.60395342E-01  1.49523130E-01 -2.20623203E-01  1.13012563E-01  9.09361899E-01