Title                                                                   
Freq      RPW91PW91 TD-FC                                             6-311G(d,p)         
Number of atoms                            I                4
Info1-9                                    I   N=           9
          13          13        1002           0           0         100
           6         218         801
Full Title                                 C   N=           1
Title       
Route                                      C   N=           6
#P TD(Singlets) PW91PW91/6-311G(d,p) Opt Freq=savenormalmode
s PoP=Full  
Charge                                     I                0
Multiplicity                               I                1
Number of electrons                        I               10
Number of alpha electrons                  I                5
Number of beta electrons                   I                5
Number of basis functions                  I               36
Number of independent functions            I               36
Number of point charges in /Mol/           I                0
Number of translation vectors              I                0
Atomic numbers                             I   N=           4
           7           1           1           1
Nuclear charges                            R   N=           4
  7.00000000E+00  1.00000000E+00  1.00000000E+00  1.00000000E+00
Current cartesian coordinates              R   N=          12
  4.60325515E-08  2.57648660E-05 -2.23787831E-04 -1.77432838E+00  1.02425180E+00
  5.22193428E-04  1.77429296E+00  1.02431277E+00  5.22193564E-04  3.50952314E-05
 -2.04874493E+00  5.22127826E-04
Number of symbols in /Mol/                 I                0
Int Atom Types                             I   N=           4
           0           0           0           0
Force Field                                I                0
Atom Types                                 C   N=           4
                                                
MM charges                                 R   N=           4
  0.00000000E+00  0.00000000E+00  0.00000000E+00  0.00000000E+00
Integer atomic weights                     I   N=           4
          14           1           1           1
Real atomic weights                        R   N=           4
  1.40030740E+01  1.00782504E+00  1.00782504E+00  1.00782504E+00
Atom fragment info                         I   N=           4
           0           0           0           0
Atom residue num                           I   N=           4
           0           0           0           0
Nuclear spins                              I   N=           4
           2           1           1           1
Nuclear ZEff                               R   N=           4
 -4.55000000E+00 -1.00000000E+00 -1.00000000E+00 -1.00000000E+00
Nuclear ZNuc                               R   N=           4
  7.00000000E+00  1.00000000E+00  1.00000000E+00  1.00000000E+00
Nuclear QMom                               R   N=           4
  2.04400000E+00  0.00000000E+00  0.00000000E+00  0.00000000E+00
Nuclear GFac                               R   N=           4
  4.03761000E-01  2.79284600E+00  2.79284600E+00  2.79284600E+00
MicOpt                                     I   N=           4
          -1          -1          -1          -1
Number of residues                         I                0
Number of secondary structures             I                0
Redundant internal dimensions              I   N=           4
           7           3           3           1
Redundant internal coordinate indices      I   N=          28
           1           2           0           0           1           3
           0           0           1           4           0           0
           2           1           3           0           2           1
           4           0           3           1           4           0
           2           1           4           3
Redundant internal coordinates             R   N=           7
  2.04872665E+00  2.04872638E+00  2.04877083E+00  2.09451511E+00  2.09433464E+00
  2.09433487E+00 -3.14033144E+00
ZRed-IntVec                                I   N=           7
           0           0           0           0           0           0
           0
ZRed-FPVec                                 R   N=           7
  0.00000000E+00  0.00000000E+00  0.00000000E+00  0.00000000E+00  0.00000000E+00
  0.00000000E+00  0.00000000E+00
ZRed-Constraint1                           R   N=           7
  2.04872665E+00  2.04872638E+00  2.04877083E+00  2.09451511E+00  2.09433464E+00
  2.09433487E+00 -3.14033144E+00
ZRed-Constraint2                           R   N=           7
  1.92562651E+00  1.92563297E+00  1.92561632E+00  1.85000606E+00  1.85000994E+00
  1.85001777E+00 -1.96108075E+00
SymInf integers                            I   N=          26
           1           1           1           1           1           0
           0           0           0           0           0           0
           0           0           0           0           0           0
           0           0           0           0           0           0
           0           0
RotTr to input orientation                 R   N=          12
  1.87325312E-05 -4.39471225E-01 -8.98256668E-01 -9.42268664E-01  3.00780519E-01
 -1.47176235E-01  3.34857827E-01  8.46401868E-01 -4.14094329E-01  1.95894915E+00
  4.19166359E-01 -3.64612234E-01
Number of contracted shells                I               17
Number of primitive shells                 I               30
Pure/Cartesian d shells                    I                0
Pure/Cartesian f shells                    I                0
Highest angular momentum                   I                2
Largest degree of contraction              I                6
Shell types                                I   N=          17
           0          -1          -1          -1          -2           0
           0           0           1           0           0           0
           1           0           0           0           1
Number of primitives per shell             I   N=          17
           6           3           1           1           1           3
           1           1           1           3           1           1
           1           3           1           1           1
Shell to atom map                          I   N=          17
           1           1           1           1           1           2
           2           2           2           3           3           3
           3           4           4           4           4
Primitive exponents                        R   N=          30
  6.29348000E+03  9.49044000E+02  2.18776000E+02  6.36916000E+01  1.88282000E+01
  2.72023000E+00  3.06331000E+01  7.02614000E+00  2.11205000E+00  6.84009000E-01
  2.00878000E-01  9.13000000E-01  3.38650000E+01  5.09479000E+00  1.15879000E+00
  3.25840000E-01  1.02741000E-01  7.50000000E-01  3.38650000E+01  5.09479000E+00
  1.15879000E+00  3.25840000E-01  1.02741000E-01  7.50000000E-01  3.38650000E+01
  5.09479000E+00  1.15879000E+00  3.25840000E-01  1.02741000E-01  7.50000000E-01
Contraction coefficients                   R   N=          30
  1.96978815E-03  1.49612859E-02  7.35005308E-02  2.48936766E-01  6.02459433E-01
  2.56201759E-01  1.11906080E-01  9.21666655E-01 -2.56919183E-03  1.00000000E+00
  1.00000000E+00  1.00000000E+00  2.54938145E-02  1.90373109E-01  8.52161486E-01
  1.00000000E+00  1.00000000E+00  1.00000000E+00  2.54938145E-02  1.90373109E-01
  8.52161486E-01  1.00000000E+00  1.00000000E+00  1.00000000E+00  2.54938145E-02
  1.90373109E-01  8.52161486E-01  1.00000000E+00  1.00000000E+00  1.00000000E+00
P(S=P) Contraction coefficients            R   N=          30
  0.00000000E+00  0.00000000E+00  0.00000000E+00  0.00000000E+00  0.00000000E+00
  0.00000000E+00  3.83119186E-02  2.37403116E-01  8.17592398E-01  1.00000000E+00
  1.00000000E+00  0.00000000E+00  0.00000000E+00  0.00000000E+00  0.00000000E+00
  0.00000000E+00  0.00000000E+00  0.00000000E+00  0.00000000E+00  0.00000000E+00
  0.00000000E+00  0.00000000E+00  0.00000000E+00  0.00000000E+00  0.00000000E+00
  0.00000000E+00  0.00000000E+00  0.00000000E+00  0.00000000E+00  0.00000000E+00
Coordinates of each shell                  R   N=          51
  4.60325515E-08  2.57648660E-05 -2.23787831E-04  4.60325515E-08  2.57648660E-05
 -2.23787831E-04  4.60325515E-08  2.57648660E-05 -2.23787831E-04  4.60325515E-08
  2.57648660E-05 -2.23787831E-04  4.60325515E-08  2.57648660E-05 -2.23787831E-04
 -1.77432838E+00  1.02425180E+00  5.22193428E-04 -1.77432838E+00  1.02425180E+00
  5.22193428E-04 -1.77432838E+00  1.02425180E+00  5.22193428E-04 -1.77432838E+00
  1.02425180E+00  5.22193428E-04  1.77429296E+00  1.02431277E+00  5.22193564E-04
  1.77429296E+00  1.02431277E+00  5.22193564E-04  1.77429296E+00  1.02431277E+00
  5.22193564E-04  1.77429296E+00  1.02431277E+00  5.22193564E-04  3.50952314E-05
 -2.04874493E+00  5.22127826E-04  3.50952314E-05 -2.04874493E+00  5.22127826E-04
  3.50952314E-05 -2.04874493E+00  5.22127826E-04  3.50952314E-05 -2.04874493E+00
  5.22127826E-04
Num ILSW                                   I              100
ILSW                                       I   N=         100
           0           0           0           0           2           0
           0           0           0           0         608          -1
           5           0           0           0           2           0
           0           0           0           0           1           0
           1           0           0           0           0           0
           0           0      100000           0          -1           0
           0           0           0           0           0           0
           0           0           0           1           0           0
           0 -2000000000           1           0           0           0
           0           0           4          52           0           0
           0           0           0           0           0           0
           0           0           0           4           0           1
           0           0           0           0           0           0
           0           0           0           0           0           0
           0           0           0           0           0           0
           0           0           0           0           0           0
           0           0           0           0
Num RLSW                                   I               52
RLSW                                       R   N=          52
  1.00000000E+00  1.00000000E+00  1.00000000E+00  1.00000000E+00  0.00000000E+00
  0.00000000E+00  0.00000000E+00  1.00000000E+00  0.00000000E+00  0.00000000E+00
  0.00000000E+00  0.00000000E+00  1.00000000E+00  0.00000000E+00  0.00000000E+00
  0.00000000E+00  0.00000000E+00  1.00000000E+00  0.00000000E+00  0.00000000E+00
  0.00000000E+00  0.00000000E+00  1.00000000E+00  0.00000000E+00  0.00000000E+00
  0.00000000E+00  0.00000000E+00  1.00000000E+00  0.00000000E+00  0.00000000E+00
  0.00000000E+00  0.00000000E+00  1.00000000E+00  0.00000000E+00  0.00000000E+00
  0.00000000E+00  0.00000000E+00  0.00000000E+00  1.00000000E+00  1.00000000E+00
  0.00000000E+00  1.00000000E+00  0.00000000E+00  0.00000000E+00  0.00000000E+00
  0.00000000E+00  0.00000000E+00  0.00000000E+00  0.00000000E+00  0.00000000E+00
  0.00000000E+00  0.00000000E+00
MxBond                                     I                3
NBond                                      I   N=           4
           3           1           1           1
IBond                                      I   N=          12
           2           3           4           1           0           0
           1           0           0           1           0           0
RBond                                      R   N=          12
  1.00000000E+00  1.00000000E+00  1.00000000E+00  1.00000000E+00  0.00000000E+00
  0.00000000E+00  1.00000000E+00  0.00000000E+00  0.00000000E+00  1.00000000E+00
  0.00000000E+00  0.00000000E+00
Virial Ratio                               R      2.008555772132689E+00
SCF Energy                                 R     -5.652344990231889E+01
CIS Energy                                 R     -5.633376236655608E+01
Total Energy                               R     -5.633376236655608E+01
Post-SCF wavefunction norm                 R      1.000000000000000E+00
RMS Force                                  R      9.571606222601205E-06
RMS Density                                R      5.264133058684047E-10
NImag                                      I                0
Job Status                                 I                1
Nuclear derivative order                   I                2
Thermal Energy                             R     -5.631004852629879E+01
Thermal Enthalpy                           R     -5.630910434148515E+01
Thermal Free Energy                        R     -5.633450978221152E+01
External E-field                           R   N=          35
  0.00000000E+00  0.00000000E+00  0.00000000E+00  0.00000000E+00  0.00000000E+00
  0.00000000E+00  0.00000000E+00  0.00000000E+00  0.00000000E+00  0.00000000E+00
  0.00000000E+00  0.00000000E+00  0.00000000E+00  0.00000000E+00  0.00000000E+00
  0.00000000E+00  0.00000000E+00  0.00000000E+00  0.00000000E+00  0.00000000E+00
  0.00000000E+00  0.00000000E+00  0.00000000E+00  0.00000000E+00  0.00000000E+00
  0.00000000E+00  0.00000000E+00  0.00000000E+00  0.00000000E+00  0.00000000E+00
  0.00000000E+00  0.00000000E+00  0.00000000E+00  0.00000000E+00  0.00000000E+00
IOpCl                                      I                0
IROHF                                      I                0
Alpha Orbital Energies                     R   N=          36
 -1.39551119E+01 -7.17170595E-01 -3.98258996E-01 -3.98236597E-01 -1.70062235E-01
  5.52434959E-03  8.67282439E-02  8.67325321E-02  3.07900203E-01  3.07932952E-01
  3.20222304E-01  5.72816299E-01  6.48485552E-01  6.48486935E-01  8.55450011E-01
  1.14167518E+00  1.14169703E+00  1.34050096E+00  1.49112616E+00  1.49114180E+00
  1.61567428E+00  1.74345857E+00  1.90533347E+00  1.90536845E+00  2.29478028E+00
  2.32649634E+00  2.32656010E+00  2.43534837E+00  2.43535820E+00  2.86574678E+00
  2.86580661E+00  2.88511120E+00  3.59611315E+00  4.47727032E+00  4.47736022E+00
  3.51318755E+01
Alpha MO coefficients                      R   N=        1296
  5.58017435E-01  4.64837095E-01 -1.80317075E-10 -2.41106705E-08  1.78356890E-06
  1.55595343E-02  1.12894500E-09  1.04748815E-07  8.20524725E-07 -3.86032122E-03
  2.06427414E-10 -3.63582319E-08  2.51606853E-07 -1.17397100E-03  4.39169451E-13
  5.82415760E-11  2.42281942E-07  6.80297218E-10  9.76799346E-05 -1.75077873E-03
  9.98199131E-04 -1.44881682E-03  8.36358652E-04  6.10935085E-07  9.76795048E-05
 -1.75078050E-03  9.98199663E-04  1.44878927E-03  8.36409286E-04  6.10935881E-07
  9.77533191E-05 -1.75053862E-03  9.98056028E-04  2.86005950E-08 -1.67265765E-03
  6.10762685E-07 -1.14737649E-01 -1.78819274E-01  1.00499590E-08 -9.76791815E-07
  5.19483315E-05  4.98018277E-01  1.20447423E-08 -1.59993540E-06  8.20390357E-05
  3.50436022E-01  3.19600459E-09 -1.03108586E-06  3.98996005E-05 -1.35011195E-02
  2.72521955E-12  3.80220013E-10  1.57217908E-06  3.03722267E-09  8.37714258E-02
  8.81854484E-02  1.03688156E-02  1.63732321E-02 -9.45177111E-03 -4.27331937E-06
  8.37714561E-02  8.81854700E-02  1.03688177E-02 -1.63729080E-02 -9.45233615E-03
 -4.27332197E-06  8.37675815E-02  8.81828804E-02  1.03685999E-02 -3.23130245E-07
  1.89056273E-02 -4.27294516E-06  8.73591045E-10  1.48837638E-09  2.13990860E-01
  1.90964879E-04  1.93366353E-11 -4.36655729E-09  3.08067737E-01  2.74917927E-04
  2.66118371E-11 -1.81587098E-08  2.13051918E-01  1.90124574E-04  1.46938445E-11
 -2.93133689E-10  2.59664886E-05  2.31724296E-08  1.13836371E-05  1.35358037E-02
 -1.51210737E-01 -1.93871045E-01 -1.03300683E-01 -1.01789126E-02  1.41615023E-02
  7.31730913E-06  1.51363618E-01  1.94067035E-01  1.03405111E-01 -1.02031991E-02
 -1.41510724E-02 -7.32470820E-06 -1.52897660E-04 -1.96037682E-04 -1.04456961E-04
  1.43306541E-02 -1.58283516E-05  7.39931960E-09 -1.56490431E-06 -2.46336958E-06
 -1.90958777E-04  2.13990934E-01  5.63120207E-09  7.14867653E-06 -2.74912632E-04
  3.08069717E-01  8.43352729E-09  6.41933920E-06 -1.90133540E-04  2.13063466E-01
  5.14226232E-09  3.49228628E-08 -2.31703772E-08  2.59650786E-05  1.35383903E-02
 -1.13813436E-05  8.74741702E-02  1.12154153E-01  5.97669471E-02  1.41647442E-02
  6.14710693E-03 -4.23239211E-06  8.72093658E-02  1.11814624E-01  5.95860149E-02
 -1.41471195E-02  6.17140024E-03 -4.21958062E-06 -1.74689561E-01 -2.23981349E-01
 -1.19358179E-01 -1.22291948E-05 -1.83628439E-02  8.45241287E-06  4.53318265E-05
  7.21116599E-05 -1.19649188E-11 -5.48322737E-09  2.84418796E-01 -2.11550520E-04
 -1.61316697E-11 -7.38415617E-09  3.86563266E-01 -3.00799520E-04 -3.00336960E-11
 -1.71591825E-08  5.21069114E-01  2.37366825E-05  5.49883211E-10 -4.81173537E-07
  7.38717800E-10  6.93861224E-13  4.92634912E-05  3.83434489E-05  6.11725062E-05
  4.91148926E-06 -2.83576119E-06  2.45390147E-02  4.92634962E-05  3.83434502E-05
  6.11724936E-05 -4.91139787E-06 -2.83593269E-06  2.45390191E-02  4.92591431E-05
  3.83327584E-05  6.11689947E-05 -9.81965149E-11  5.66880569E-06  2.45381252E-02
 -6.57314345E-02 -1.03266295E-01 -4.69015092E-08 -7.52207152E-06  1.05090852E-04
  2.59575007E-01 -5.51886407E-08 -9.86807106E-06  1.64485244E-04  1.23977401E+00
 -1.29610456E-07 -1.54624757E-05  2.95909173E-04 -1.48041469E-03  3.69220873E-13
 -1.64575463E-10  2.43037149E-07  4.86142540E-09 -6.06736583E-02 -1.33047805E-01
 -6.04246475E-01  7.19356958E-03 -4.15161869E-03  4.40687695E-06 -6.06736358E-02
 -1.33047776E-01 -6.04246222E-01 -7.19341621E-03 -4.15185764E-03  4.40688591E-06
 -6.06703478E-02 -1.33028331E-01 -6.04252623E-01 -1.44540500E-07  8.30782829E-03
  4.40497558E-06 -2.20872340E-06 -3.50799154E-06 -4.44726804E-04  1.88072833E-01
  7.36222227E-09  9.36461292E-06 -5.29364791E-04  2.23867401E-01  9.39495251E-09
  4.30941572E-05 -1.75497718E-03  7.42161609E-01  2.81212675E-08  5.84309097E-07
 -1.50507696E-08  6.36482494E-06 -1.30101970E-02  3.00893541E-05 -2.32819292E-02
 -4.74627904E-02 -7.40057556E-01  1.63553314E-02 -1.81077226E-05 -7.11813465E-06
 -2.30934230E-02 -4.70785535E-02 -7.34063877E-01 -1.62669896E-02  5.79074229E-05
 -7.06047772E-06  4.63680931E-02  9.45190319E-02  1.47409199E+00 -2.16599857E-05
 -2.82317141E-02  1.41793262E-05  1.49210223E-08  2.33202916E-08 -1.88064768E-01
 -4.44723633E-04 -3.80926927E-11 -5.23020181E-08 -2.23853405E-01 -5.29358045E-04
 -5.25166408E-11 -3.97724757E-07 -7.42154087E-01 -1.75497560E-03 -1.42966702E-10
  8.13604817E-10 -6.36440110E-06 -1.50499747E-08  3.00905209E-05  1.30062464E-02
 -4.00891591E-02 -8.17088518E-02 -1.27490830E+00  1.87794950E-02 -1.63088778E-02
 -1.22645517E-05  4.01980048E-02  8.19307288E-02  1.27836920E+00  1.88555151E-02
  1.63094417E-02  1.22978402E-05 -1.08833183E-04 -2.21835605E-04 -3.46040829E-03
 -9.43123561E-03  6.61128950E-05 -3.32871410E-08 -3.54418793E-05 -5.91557327E-05
 -6.76252392E-05  8.26037464E-02  4.57906519E-08  1.76959612E-04 -1.18969038E-04
  1.45328529E-01  7.95082396E-08  5.84456600E-04 -8.51194208E-04  1.03988639E+00
  4.46789031E-07  2.27499983E-05 -2.53707531E-09  3.10200414E-06 -2.19537466E-02
  1.68422155E-05 -5.85067184E-02 -7.39394112E-01  4.38409927E-01  1.22688831E-02
  5.72475815E-02 -2.82581253E-06 -5.83447985E-02 -7.37346674E-01  4.37195723E-01
 -1.23398530E-02  5.72669052E-02 -2.81789147E-06  1.16546719E-01  1.47413845E+00
 -8.74180826E-01 -5.21895829E-05  3.59412424E-02  5.72704069E-06  1.16497882E-08
  2.01476960E-08 -8.26175824E-02 -6.76251113E-05 -1.38368207E-11 -5.25214053E-08
 -1.45367317E-01 -1.18994877E-04 -3.46474610E-11 -4.99931166E-07 -1.04017036E+00
 -8.51542232E-04 -3.34728940E-10 -1.42459102E-09 -3.10372432E-06 -2.54306839E-09
  1.68356722E-05  2.19517195E-02 -1.00963851E-01 -1.27694801E+00  7.56957456E-01
 -4.30702559E-02 -1.23611697E-02 -4.94405481E-06  1.01057399E-01  1.27813094E+00
 -7.57658438E-01 -4.30509742E-02  1.22678837E-02  4.94858786E-06 -9.34381085E-05
 -1.18189730E-03  7.00643977E-04 -6.43710963E-02 -2.99108562E-05 -4.59064663E-09
  4.14593068E-02  6.91289044E-02 -1.93412080E-08  8.55394847E-05 -5.12807523E-05
 -2.09342521E-01 -4.13948542E-08  1.50507967E-04 -8.91102568E-05 -6.43883392E-01
 -5.86246224E-07  9.84779748E-04 -4.62576575E-04 -2.72768422E-02 -2.65422152E-12
  2.73417275E-09 -1.79033005E-05  8.02483846E-09  1.11685129E-01  9.89213096E-01
 -5.31279565E-01 -1.93283188E-03  1.17131283E-03 -2.82453806E-05  1.11685205E-01
  9.89214194E-01 -5.31279884E-01  1.93273684E-03  1.17138387E-03 -2.82453923E-05
  1.11838822E-01  9.91251897E-01 -5.32447926E-01  6.64389957E-09 -2.21228980E-03
 -2.82280346E-05 -6.30568082E-06 -9.14116756E-06  2.08440747E-11  1.06658707E-08
 -2.73129060E-01 -7.80740514E-05  8.53339546E-11  3.21515016E-08 -8.57974964E-01
  8.11176492E-04 -1.91728922E-10 -1.07016826E-07  1.13448627E+00 -3.71099466E-05
 -1.54659772E-09 -2.20848887E-07  3.55311365E-09  1.00417002E-11  1.42002034E-05
 -2.18974341E-04 -1.67249178E-04 -6.26880365E-05  3.61877909E-05 -9.19093583E-03
  1.42002019E-05 -2.18974223E-04 -1.67249207E-04  6.26867877E-05  3.61899563E-05
 -9.19096909E-03  1.42018759E-05 -2.19033213E-04 -1.67253605E-04  1.23158949E-09
 -7.23884138E-05 -9.18587558E-03 -4.69696467E-09 -8.10863641E-09 -2.79933379E-01
  1.31082925E-03  2.91020367E-11  8.09748697E-09 -7.64013403E-01  3.57781314E-03
  1.03093234E-10  2.68605034E-07  1.87661797E+00 -8.78705593E-03 -7.46504074E-11
 -2.35780735E-09  3.17334080E-05 -1.48538963E-07 -2.22582080E-04  4.70133930E-02
 -5.87532546E-02  2.06072100E-01  1.00228940E+00  1.40523181E-01 -6.49290629E-02
 -5.44666925E-05  5.84352783E-02 -2.04957517E-01 -9.96864855E-01  1.39913417E-01
  6.43177329E-02  5.41719073E-05  3.17971668E-04 -1.11503286E-03 -5.42454383E-03
  2.82480652E-02 -8.33795566E-04  2.94795010E-07  1.41710275E-06  2.04163283E-06
 -1.31085436E-03 -2.79930712E-01 -1.27888694E-08  6.16887212E-06 -3.57763339E-03
 -7.64041907E-01 -3.77408506E-08 -7.53010488E-05  8.78771220E-03  1.87649761E+00
  3.55826033E-08 -1.68565969E-06  1.48611184E-07  3.17234175E-05  4.70162406E-02
  2.22578827E-04  3.35523740E-02 -1.17585339E-01 -5.72410863E-01 -6.39738365E-02
  6.52462008E-02  3.11059338E-05  3.41031488E-02 -1.19517142E-01 -5.81806814E-01
  6.52896244E-02  6.58558742E-02  3.16165390E-05 -6.76554148E-02  2.37271518E-01
  1.15419126E+00  1.29732159E-04  1.77514548E-01 -6.27260778E-05  1.13190032E-01
  2.20658328E-01 -1.47419533E-08 -2.34592484E-06 -2.00866228E-05 -1.78339174E+00
  6.36600274E-08  2.48051182E-06  1.36458599E-04  3.62014558E+00 -3.38168123E-09
 -9.04940286E-05  3.96841829E-04 -3.42623060E-02  3.31363340E-11  1.20380854E-08
  1.61732074E-05  4.70633353E-08  3.63242030E-02 -5.78711068E-01 -4.52799982E-01
 -1.80292517E-01  1.04078020E-01  1.52938885E-04  3.63242006E-02 -5.78711085E-01
 -4.52800249E-01  1.80289011E-01  1.04084275E-01  1.52938994E-04  3.63241955E-02
 -5.78794846E-01 -4.52734670E-01  3.56053547E-06 -2.08167191E-01  1.52882585E-04
 -8.02303948E-12 -1.68583559E-11 -1.01038222E-05 -4.81172461E-09 -8.15715924E-09
  1.30928141E-10  7.33077064E-05  3.49469647E-08 -7.16504153E-08 -2.23096333E-10
 -5.53547143E-04 -2.63781275E-07  5.72787561E-08 -1.01378415E-11  2.78481120E-01
  1.32685229E-04 -1.02605708E-07 -2.41427252E-04  1.60792412E-05 -3.01377134E-04
 -2.85251434E-05 -2.98925326E-05  3.27526659E-04 -6.10774240E-01 -1.60877478E-05
  3.01537064E-04  2.85403547E-05 -3.01819575E-05 -3.27208053E-04  6.11098178E-01
  8.53352176E-09 -1.59858449E-07 -1.51322106E-08  5.36876213E-04 -9.14437291E-08
 -3.24044330E-04  6.25382317E-09  1.30512366E-08 -4.81569612E-09  1.01015690E-05
  3.15578187E-07 -9.99519825E-08  3.49182144E-08 -7.33206647E-05  1.16583696E-05
  1.29790135E-07 -2.63642240E-07  5.53372501E-04 -1.76287286E-05  9.60157660E-09
  1.32697204E-04 -2.78482056E-01  2.41369204E-04 -1.02550705E-07  9.27885295E-06
 -1.74121522E-04 -1.64974882E-05 -3.27233543E-04 -3.47731195E-04 -3.52994537E-01
  9.26407538E-06 -1.73844718E-04 -1.64713353E-05  3.27218026E-04 -3.48020632E-04
 -3.52433320E-01 -1.85751126E-05  3.47958223E-04  3.29130191E-05  2.42711132E-07
  2.18981253E-04  7.05472285E-01 -2.40104759E-12 -3.89962373E-12 -7.34297150E-06
  3.26216491E-09  1.47037721E-13  1.11787782E-11 -1.06618480E-04  5.70361645E-08
  2.22495690E-15  2.17618955E-11  2.73016252E-04 -1.86481366E-07  5.53186125E-13
  1.21464886E-11  2.76769723E-08 -3.36687540E-11 -4.84934083E-08  5.36531996E-05
  2.13744219E-06  1.24543598E-04  1.61699085E-05 -2.96380332E-01 -5.13272680E-01
 -1.35630667E-07 -2.14976109E-06 -1.24410905E-04 -1.61805519E-05 -2.96397997E-01
  5.13262647E-01  1.35483359E-07  1.22773882E-08 -1.32645314E-07  1.06077088E-08
  5.92503857E-01  1.02337407E-05  1.45596992E-10 -8.23899417E-09 -1.37364476E-08
 -3.46533971E-02  4.57772564E-05 -1.13632715E-11  3.46520545E-08 -4.18550393E-01
  5.52575778E-04 -1.87372914E-11  2.19151873E-07  1.28101283E+00 -1.69086884E-03
 -4.83978063E-11  6.42737814E-08  6.35373557E-05 -8.38596423E-08 -3.69658711E-04
  2.69420151E-01 -1.20098971E-01  7.62513467E-01 -6.47444950E-02 -4.69271418E-01
 -1.13642705E-01 -4.19708836E-04  1.19913392E-01 -7.61336795E-01  6.46441495E-02
 -4.69581355E-01  1.15236414E-01  4.19061625E-04  1.85492433E-04 -1.17671018E-03
  1.00203405E-04 -6.68005146E-01  5.28192995E-04  6.47655409E-07  2.08890623E-06
  4.75260463E-06 -4.57495171E-05 -3.46584170E-02 -8.11544358E-10 -2.95507479E-05
 -5.52753024E-04 -4.18498129E-01 -3.30489570E-08 -1.38507266E-05  1.69187316E-03
  1.28068574E+00  4.89211409E-08 -6.66569766E-06  8.39040441E-08  6.35076129E-05
  2.69420509E-01  3.69659684E-04  6.91719957E-02 -4.38823160E-01  3.73363236E-02
 -1.15056484E-01 -6.01897599E-01  2.41461318E-04  6.94929740E-02 -4.40861741E-01
  3.75091778E-02  1.13821235E-01 -6.01587209E-01  2.42583502E-04 -1.38645272E-01
  8.79723292E-01 -7.48447324E-02 -8.86625968E-04 -4.03404193E-01 -4.84162597E-04
 -1.03262999E-04 -2.08177318E-04 -4.54247464E-11 -1.66021031E-08 -8.70370094E-02
  1.47196494E-03  7.76242443E-11 -7.36874486E-08 -8.56155443E-04 -1.63053028E-03
 -7.85948700E-10  1.56996807E-07 -6.20667559E-01  8.22345349E-04  1.86374894E-08
 -1.40603661E-05 -3.08264216E-09 -1.34318143E-10 -3.49043410E-04  1.06440114E-03
 -2.31911109E-04 -3.01591088E-04  1.74033958E-04  6.72841255E-01 -3.49043433E-04
  1.06440203E-03 -2.31910839E-04  3.01585123E-04  1.74043935E-04  6.72841318E-01
 -3.49026942E-04  1.06444542E-03 -2.31905944E-04  6.32977691E-09 -3.48329401E-04
  6.72791343E-01 -4.81901381E-02 -9.16698690E-02 -3.35985576E-08 -1.09097889E-05
  2.27290941E-04  5.09666431E-01 -1.09602128E-08 -5.00741718E-05  1.55234675E-04
 -1.52322382E-01 -3.97286520E-07  4.09541151E-05  8.47925198E-04  4.90217087E-01
 -7.67983872E-11 -3.68977562E-09 -2.46125866E-05 -7.98180453E-08 -4.10551663E-01
  5.87614290E-01 -2.52939487E-01 -3.27336716E-01  1.88923662E-01 -9.74209565E-04
 -4.10551697E-01  5.87614774E-01 -2.52939360E-01  3.27330119E-01  1.88934696E-01
 -9.74209975E-04 -4.10503570E-01  5.87543691E-01 -2.52902482E-01  6.62861324E-06
 -3.78010669E-01 -9.74134386E-04  2.87957130E-06  6.67120808E-06 -2.42991435E-05
  1.89706258E-01  1.14833220E-09 -4.44311990E-05  2.01178300E-06 -1.60260101E-02
 -2.78982451E-08 -9.07719347E-05 -7.76738519E-05  6.04584345E-01 -4.65619796E-08
 -4.56990371E-05  9.30363992E-08 -7.25695590E-04 -3.67274906E-01  2.80297912E-05
 -3.94649150E-01  3.85994700E-01 -3.75006901E-01 -3.70738688E-01 -3.64898588E-01
  3.46494362E-04 -3.94497671E-01  3.85846873E-01 -3.74862860E-01  3.70737169E-01
 -3.64968292E-01  3.46361079E-04  7.89012381E-01 -7.71527090E-01  7.49808425E-01
  5.95286915E-05  2.77385118E-01 -6.92806086E-04  1.39865319E-10 -2.35217332E-09
 -1.89730222E-01 -2.43028772E-05  1.16658480E-13  1.56508635E-08  1.60664151E-02
  2.09898175E-06  6.54922005E-11  3.34907212E-07 -6.04421637E-01 -7.71878088E-05
  1.76407488E-10 -5.07903478E-08  7.25713130E-04  9.28741367E-08  2.81990926E-05
  3.67323004E-01 -6.83392783E-01  6.68391581E-01 -6.49339707E-01 -6.32507020E-02
  3.70759695E-01  5.99948626E-04  6.83480648E-01 -6.68478062E-01  6.49422984E-01
 -6.33198503E-02 -3.70680963E-01 -6.00025483E-04 -8.74392685E-05  8.55131935E-05
 -8.31058833E-05  5.78853829E-01 -2.08491863E-05  7.66604752E-08  3.10899310E-02
  7.80651779E-02 -3.13338538E-08 -1.99889417E-05  1.44824643E-05 -6.24822256E-01
 -4.00607896E-08  1.46689710E-04 -2.77191544E-04 -7.70775508E-01 -2.78726411E-08
  1.55941555E-04 -5.80915214E-04 -2.62736574E-01  1.82142492E-09  2.88745966E-07
 -1.40686440E-05 -1.25644879E-07 -8.14942450E-01  1.32337034E+00 -2.89651794E-01
  3.18933331E-01 -1.84147446E-01  2.43216890E-04 -8.14941949E-01  1.32336996E+00
 -2.89651455E-01 -3.18927213E-01 -1.84158534E-01  2.43215173E-04 -8.15292533E-01
  1.32401887E+00 -2.89846772E-01 -6.32406266E-06  3.68433134E-01  2.43306181E-04
  1.02849953E-08  2.65507251E-08  1.13228833E-07 -1.05854904E-04 -7.42623694E-07
 -2.60792359E-07  2.18391674E-06 -2.04190195E-03  6.96196297E-06 -7.54709437E-08
  1.89047421E-06 -1.76722224E-03 -1.77476565E-05 -7.36874896E-08 -1.11786924E-03
  1.04516802E+00 -1.45464819E-03  1.48084351E-06 -1.12662808E-03  2.60587918E-03
 -5.72014721E-04  9.55460998E-04 -4.59339138E-04 -2.69399552E-01 -1.12252797E-03
  2.59639629E-03 -5.69933083E-04 -9.52162585E-04 -4.57364894E-04 -2.68419167E-01
  2.24902655E-03 -5.20190168E-03  1.14190097E-03 -6.10443177E-08 -2.11009249E-03
  5.37876061E-01 -1.06505108E-11 -1.48483502E-11 -1.06118765E-04 -1.13490632E-07
  2.29164186E-08 -1.58991286E-10 -2.04344591E-03 -2.18562852E-06  2.82181229E-08
  6.60894188E-10 -1.76994648E-03 -1.89275762E-06  1.85170657E-08  4.26356591E-10
  1.04518777E+00  1.11790209E-03 -1.48156738E-06 -1.45532868E-03  1.94734329E-03