 Entering Gaussian System, Link 0=g16
 Input=OCHH_freq_16.gjf
 Output=OCHH_freq_16.log
 Initial command:
 /sw/contrib/gaussian/g16/B01/g16/l1.exe "/scr/Gau-12225.inp" -scrdir="/scr/"
 Entering Link 1 = /sw/contrib/gaussian/g16/B01/g16/l1.exe PID=     12226.
  
 Copyright (c) 1988-2017, Gaussian, Inc.  All Rights Reserved.
  
 This is part of the Gaussian(R) 16 program.  It is based on
 the Gaussian(R) 09 system (copyright 2009, Gaussian, Inc.),
 the Gaussian(R) 03 system (copyright 2003, Gaussian, Inc.),
 the Gaussian(R) 98 system (copyright 1998, Gaussian, Inc.),
 the Gaussian(R) 94 system (copyright 1995, Gaussian, Inc.),
 the Gaussian 92(TM) system (copyright 1992, Gaussian, Inc.),
 the Gaussian 90(TM) system (copyright 1990, Gaussian, Inc.),
 the Gaussian 88(TM) system (copyright 1988, Gaussian, Inc.),
 the Gaussian 86(TM) system (copyright 1986, Carnegie Mellon
 University), and the Gaussian 82(TM) system (copyright 1983,
 Carnegie Mellon University). Gaussian is a federally registered
 trademark of Gaussian, Inc.
  
 This software contains proprietary and confidential information,
 including trade secrets, belonging to Gaussian, Inc.
  
 This software is provided under written license and may be
 used, copied, transmitted, or stored only in accord with that
 written license.
  
 The following legend is applicable only to US Government
 contracts under FAR:
  
                    RESTRICTED RIGHTS LEGEND
  
 Use, reproduction and disclosure by the US Government is
 subject to restrictions as set forth in subparagraphs (a)
 and (c) of the Commercial Computer Software - Restricted
 Rights clause in FAR 52.227-19.
  
 Gaussian, Inc.
 340 Quinnipiac St., Bldg. 40, Wallingford CT 06492
  
  
 ---------------------------------------------------------------
 Warning -- This program may not be used in any manner that
 competes with the business of Gaussian, Inc. or will provide
 assistance to any competitor of Gaussian, Inc.  The licensee
 of this program is prohibited from giving any competitor of
 Gaussian, Inc. access to this program.  By using this program,
 the user acknowledges that Gaussian, Inc. is engaged in the
 business of creating and licensing software in the field of
 computational chemistry and represents and warrants to the
 licensee that it is not a competitor of Gaussian, Inc. and that
 it will not use this program in any manner prohibited above.
 ---------------------------------------------------------------
  

 Cite this work as:
 Gaussian 16, Revision B.01,
 M. J. Frisch, G. W. Trucks, H. B. Schlegel, G. E. Scuseria, 
 M. A. Robb, J. R. Cheeseman, G. Scalmani, V. Barone, 
 G. A. Petersson, H. Nakatsuji, X. Li, M. Caricato, A. V. Marenich, 
 J. Bloino, B. G. Janesko, R. Gomperts, B. Mennucci, H. P. Hratchian, 
 J. V. Ortiz, A. F. Izmaylov, J. L. Sonnenberg, D. Williams-Young, 
 F. Ding, F. Lipparini, F. Egidi, J. Goings, B. Peng, A. Petrone, 
 T. Henderson, D. Ranasinghe, V. G. Zakrzewski, J. Gao, N. Rega, 
 G. Zheng, W. Liang, M. Hada, M. Ehara, K. Toyota, R. Fukuda, 
 J. Hasegawa, M. Ishida, T. Nakajima, Y. Honda, O. Kitao, H. Nakai, 
 T. Vreven, K. Throssell, J. A. Montgomery, Jr., J. E. Peralta, 
 F. Ogliaro, M. J. Bearpark, J. J. Heyd, E. N. Brothers, K. N. Kudin, 
 V. N. Staroverov, T. A. Keith, R. Kobayashi, J. Normand, 
 K. Raghavachari, A. P. Rendell, J. C. Burant, S. S. Iyengar, 
 J. Tomasi, M. Cossi, J. M. Millam, M. Klene, C. Adamo, R. Cammi, 
 J. W. Ochterski, R. L. Martin, K. Morokuma, O. Farkas, 
 J. B. Foresman, and D. J. Fox, Gaussian, Inc., Wallingford CT, 2016.
 
 ******************************************
 Gaussian 16:  ES64L-G16RevB.01 20-Dec-2017
                11-Jun-2021 
 ******************************************
 %Chk=OCHH_freq_16.chk
 %NProc=28
 Will use up to   28 processors via shared memory.
 %Mem=1000MB
 ----------------------------------------------------------------------
 #MP2/aug-cc-pvdz #Density=current #Opt=VeryTight #Frequency=Anharmonic
 ----------------------------------------------------------------------
 1/7=1,18=20,19=15,38=1,80=1/1,3;
 2/9=110,12=2,17=6,18=5,40=1/2;
 3/5=16,7=10,11=9,25=1,30=1,71=1/1,2,3;
 4//1;
 5/5=2,38=5/2;
 8/6=4,10=1/1;
 9/15=2,16=-3/6;
 10/5=1/2;
 6/7=2,8=2,9=2,10=2,22=-1/1;
 7/12=2/1,2,3,16;
 1/7=1,18=20,19=15,80=1/3(2);
 2/9=110/2;
 99//99;
 2/9=110/2;
 3/5=16,7=10,11=9,25=1,30=1,71=1/1,2,3;
 4/5=5,16=3,69=1/1;
 5/5=2,38=5/2;
 8/6=4,10=1/1;
 9/15=2,16=-3/6;
 10/5=1/2;
 7/12=2/1,2,3,16;
 1/7=1,18=20,19=15,80=1/3(-8);
 2/9=110/2;
 6/7=2,8=2,9=2,10=2,22=-1/1;
 99/9=10/99;
 -----------------
 Formaldahyde freq
 -----------------
 Symbolic Z-matrix:
 Charge =  0 Multiplicity = 1
 O
 C                    1    ROC
 H                    2    RCH      1    A
 H                    2    RCH      1    A        3    D        0
       Variables:
  ROC                   1.22                     
  RCH                   1.07                     
  A                   120.                       
  D                   180.                       
 

 GradGradGradGradGradGradGradGradGradGradGradGradGradGradGradGradGradGrad
 Berny optimization.
 Initialization pass.
                           ----------------------------
                           !    Initial Parameters    !
                           ! (Angstroms and Degrees)  !
 --------------------------                            --------------------------
 ! Name  Definition              Value          Derivative Info.                !
 --------------------------------------------------------------------------------
 ! R1    R(1,2)                  1.22           estimate D2E/DX2                !
 ! R2    R(2,3)                  1.07           estimate D2E/DX2                !
 ! R3    R(2,4)                  1.07           estimate D2E/DX2                !
 ! A1    A(1,2,3)              120.0            estimate D2E/DX2                !
 ! A2    A(1,2,4)              120.0            estimate D2E/DX2                !
 ! A3    A(3,2,4)              120.0            estimate D2E/DX2                !
 ! D1    D(1,2,4,3)            180.0            estimate D2E/DX2                !
 --------------------------------------------------------------------------------
 Trust Radius=3.00D-01 FncErr=1.00D-07 GrdErr=1.00D-07 EigMax=2.50D+02 EigMin=1.00D-04
 Number of steps in this run=     20 maximum allowed number of steps=    100.
 GradGradGradGradGradGradGradGradGradGradGradGradGradGradGradGradGradGrad

                          Input orientation:                          
 ---------------------------------------------------------------------
 Center     Atomic      Atomic             Coordinates (Angstroms)
 Number     Number       Type             X           Y           Z
 ---------------------------------------------------------------------
      1          8           0        0.000000    0.000000    0.000000
      2          6           0        0.000000    0.000000    1.220000
      3          1           0        0.926647    0.000000    1.755000
      4          1           0       -0.926647    0.000000    1.755000
 ---------------------------------------------------------------------
                    Distance matrix (angstroms):
                    1          2          3          4
     1  O    0.000000
     2  C    1.220000   0.000000
     3  H    1.984616   1.070000   0.000000
     4  H    1.984616   1.070000   1.853294   0.000000
 Stoichiometry    CH2O
 Framework group  C2V[C2(CO),SGV(H2)]
 Deg. of freedom     3
 Full point group                 C2V     NOp   4
 Largest Abelian subgroup         C2V     NOp   4
 Largest concise Abelian subgroup C2      NOp   2
                         Standard orientation:                         
 ---------------------------------------------------------------------
 Center     Atomic      Atomic             Coordinates (Angstroms)
 Number     Number       Type             X           Y           Z
 ---------------------------------------------------------------------
      1          8           0        0.000000    0.000000    0.676875
      2          6           0        0.000000   -0.000000   -0.543125
      3          1           0        0.000000    0.926647   -1.078125
      4          1           0       -0.000000   -0.926647   -1.078125
 ---------------------------------------------------------------------
 Rotational constants (GHZ):         291.9935392          38.6999054          34.1709899
 Standard basis: Aug-CC-pVDZ (5D, 7F)
 There are    33 symmetry adapted cartesian basis functions of A1  symmetry.
 There are     6 symmetry adapted cartesian basis functions of A2  symmetry.
 There are    12 symmetry adapted cartesian basis functions of B1  symmetry.
 There are    17 symmetry adapted cartesian basis functions of B2  symmetry.
 There are    29 symmetry adapted basis functions of A1  symmetry.
 There are     6 symmetry adapted basis functions of A2  symmetry.
 There are    12 symmetry adapted basis functions of B1  symmetry.
 There are    17 symmetry adapted basis functions of B2  symmetry.
    64 basis functions,   108 primitive gaussians,    68 cartesian basis functions
     8 alpha electrons        8 beta electrons
       nuclear repulsion energy        31.3065518728 Hartrees.
 NAtoms=    4 NActive=    4 NUniq=    3 SFac= 1.78D+00 NAtFMM=   60 NAOKFM=F Big=F
 Integral buffers will be    131072 words long.
 Raffenetti 1 integral format.
 Two-electron integral symmetry is turned on.
 One-electron integrals computed using PRISM.
 NBasis=    64 RedAO= T EigKep=  7.06D-04  NBF=    29     6    12    17
 NBsUse=    64 1.00D-06 EigRej= -1.00D+00 NBFU=    29     6    12    17
 ExpMin= 2.97D-02 ExpMax= 1.17D+04 ExpMxC= 4.01D+02 IAcc=3 IRadAn=         5 AccDes= 0.00D+00
 Harris functional with IExCor=  205 and IRadAn=       5 diagonalized for initial guess.
 HarFok:  IExCor=  205 AccDes= 0.00D+00 IRadAn=         5 IDoV= 1 UseB2=F ITyADJ=14
 ICtDFT=  3500011 ScaDFX=  1.000000  1.000000  1.000000  1.000000
 FoFCou: FMM=F IPFlag=           0 FMFlag=      100000 FMFlg1=           0
         NFxFlg=           0 DoJE=T BraDBF=F KetDBF=T FulRan=T
         wScrn=  0.000000 ICntrl=       500 IOpCl=  0 I1Cent=   200000004 NGrid=           0
         NMat0=    1 NMatS0=      1 NMatT0=    0 NMatD0=    1 NMtDS0=    0 NMtDT0=    0
 Petite list used in FoFCou.
 Initial guess orbital symmetries:
       Occupied  (A1) (A1) (A1) (A1) (B2) (A1) (B1) (B2)
       Virtual   (B1) (A1) (B2) (A1) (B1) (A1) (B2) (A1) (A1) (B2)
                 (B1) (A1) (A2) (B2) (B1) (A1) (B2) (A1) (A1) (A1)
                 (B2) (B1) (A2) (B2) (A1) (B1) (A1) (B2) (A1) (B2)
                 (B1) (A2) (A1) (A1) (A2) (B2) (B1) (A1) (B2) (B1)
                 (A1) (B2) (A1) (B1) (A1) (A2) (B2) (A1) (A1) (B2)
                 (A1) (A2) (A1) (B1) (B2) (A1)
 The electronic state of the initial guess is 1-A1.
 Keep R1 ints in memory in symmetry-blocked form, NReq=7997789.
 Requested convergence on RMS density matrix=1.00D-08 within 128 cycles.
 Requested convergence on MAX density matrix=1.00D-06.
 Requested convergence on             energy=1.00D-06.
 No special actions if energy rises.
 SCF Done:  E(RHF) =  -113.882910911     A.U. after   11 cycles
            NFock= 11  Conv=0.36D-08     -V/T= 2.0014
 ExpMin= 2.97D-02 ExpMax= 1.17D+04 ExpMxC= 4.01D+02 IAcc=3 IRadAn=         5 AccDes= 0.00D+00
 HarFok:  IExCor=  205 AccDes= 0.00D+00 IRadAn=         5 IDoV=-2 UseB2=F ITyADJ=14
 ICtDFT= 12500011 ScaDFX=  1.000000  1.000000  1.000000  1.000000
 Range of M.O.s used for correlation:     3    64
 NBasis=    64 NAE=     8 NBE=     8 NFC=     2 NFV=     0
 NROrb=     62 NOA=     6 NOB=     6 NVA=    56 NVB=    56

 **** Warning!!: The largest alpha MO coefficient is  0.11980790D+02

 Fully direct method using O(ONN) memory.
 JobTyp=1 Pass  1:  I=   3 to   8 NPSUse= 10 ParTrn=T ParDer=T DoDerP=T.
 Spin components of T(2) and E(2):
     alpha-alpha T2 =       0.1313216587D-01 E2=     -0.4163422758D-01
     alpha-beta  T2 =       0.7922446451D-01 E2=     -0.2502417205D+00
     beta-beta   T2 =       0.1313216587D-01 E2=     -0.4163422758D-01
 ANorm=    0.1051422273D+01
 E2 =    -0.3335101756D+00 EUMP2 =    -0.11421642108700D+03
          IDoAtm=1111
          Differentiating once with respect to electric field.
                with respect to dipole field.
          Differentiating once with respect to nuclear coordinates.
 Keep R1 ints in memory in symmetry-blocked form, NReq=7999015.
          There are     1 degrees of freedom in the 1st order CPHF.  IDoFFX=0 NUNeed=     1.
 LinEq1:  Iter=  0 NonCon=     1 RMS=8.24D-03 Max=7.74D-02 NDo=     1
 AX will form     1 AO Fock derivatives at one time.
 LinEq1:  Iter=  1 NonCon=     1 RMS=2.61D-03 Max=1.83D-02 NDo=     1
 LinEq1:  Iter=  2 NonCon=     1 RMS=7.70D-04 Max=6.40D-03 NDo=     1
 LinEq1:  Iter=  3 NonCon=     1 RMS=2.13D-04 Max=1.71D-03 NDo=     1
 LinEq1:  Iter=  4 NonCon=     1 RMS=5.25D-05 Max=3.90D-04 NDo=     1
 LinEq1:  Iter=  5 NonCon=     1 RMS=1.26D-05 Max=9.11D-05 NDo=     1
 LinEq1:  Iter=  6 NonCon=     1 RMS=2.56D-06 Max=1.95D-05 NDo=     1
 LinEq1:  Iter=  7 NonCon=     1 RMS=3.63D-07 Max=2.54D-06 NDo=     1
 LinEq1:  Iter=  8 NonCon=     1 RMS=3.94D-08 Max=2.03D-07 NDo=     1
 LinEq1:  Iter=  9 NonCon=     1 RMS=4.31D-09 Max=2.78D-08 NDo=     1
 LinEq1:  Iter= 10 NonCon=     1 RMS=3.77D-10 Max=2.15D-09 NDo=     1
 LinEq1:  Iter= 11 NonCon=     0 RMS=3.02D-11 Max=1.53D-10 NDo=     1
 Linear equations converged to 1.000D-10 1.000D-09 after    11 iterations.
 End of Minotr F.D. properties file   721 does not exist.
 End of Minotr F.D. properties file   722 does not exist.
 End of Minotr F.D. properties file   788 does not exist.

 **********************************************************************

            Population analysis using the MP2 Density.

 **********************************************************************

 Orbital symmetries:
       Occupied  (A1) (A1) (A1) (A1) (B2) (A1) (B1) (B2)
       Virtual   (A1) (B2) (B1) (A1) (B1) (B2) (A1) (A1) (A1) (B2)
                 (B1) (A1) (A2) (B2) (A1) (B1) (B2) (A1) (B2) (A1)
                 (A2) (B1) (A1) (B2) (A1) (B1) (A1) (B2) (A1) (B2)
                 (A2) (B1) (A1) (A1) (A2) (B2) (A1) (B1) (B2) (B1)
                 (A1) (B2) (A1) (B1) (A1) (A2) (B2) (A1) (A1) (B2)
                 (A1) (A2) (A1) (B1) (B2) (A1)
 The electronic state is 1-A1.
 Alpha  occ. eigenvalues --  -20.58672 -11.34673  -1.40143  -0.88200  -0.70486
 Alpha  occ. eigenvalues --   -0.64767  -0.52967  -0.44676
 Alpha virt. eigenvalues --    0.03281   0.04973   0.06831   0.08970   0.14623
 Alpha virt. eigenvalues --    0.15687   0.16010   0.21988   0.26188   0.26381
 Alpha virt. eigenvalues --    0.26784   0.32330   0.34144   0.36302   0.45438
 Alpha virt. eigenvalues --    0.45664   0.46756   0.51057   0.55099   0.55660
 Alpha virt. eigenvalues --    0.60035   0.61258   0.63570   0.69812   0.75971
 Alpha virt. eigenvalues --    0.84435   0.89342   1.00166   1.06853   1.21080
 Alpha virt. eigenvalues --    1.21370   1.22813   1.28686   1.41943   1.49568
 Alpha virt. eigenvalues --    1.50733   1.61356   1.62760   1.82387   1.82951
 Alpha virt. eigenvalues --    1.96266   1.97319   2.09039   2.13593   2.17271
 Alpha virt. eigenvalues --    2.25714   2.42826   2.55904   2.71636   2.99725
 Alpha virt. eigenvalues --    3.34597   3.69180   3.71029   3.73860   3.89150
 Alpha virt. eigenvalues --    4.03450
          Condensed to atoms (all electrons):
               1          2          3          4
     1  O    8.171738   0.276200  -0.019239  -0.019239
     2  C    0.276200   4.442575   0.250557   0.250557
     3  H   -0.019239   0.250557   1.150529  -0.196521
     4  H   -0.019239   0.250557  -0.196521   1.150529
 Mulliken charges:
               1
     1  O   -0.409460
     2  C    0.780111
     3  H   -0.185326
     4  H   -0.185326
 Sum of Mulliken charges =  -0.00000
 Mulliken charges with hydrogens summed into heavy atoms:
               1
     1  O   -0.409460
     2  C    0.409460
 Electronic spatial extent (au):  <R**2>=             60.7226
 Charge=             -0.0000 electrons
 Dipole moment (field-independent basis, Debye):
    X=              0.0000    Y=             -0.0000    Z=             -2.4519  Tot=              2.4519
 Quadrupole moment (field-independent basis, Debye-Ang):
   XX=            -11.8331   YY=            -11.7813   ZZ=            -12.5384
   XY=             -0.0000   XZ=             -0.0000   YZ=             -0.0000
 Traceless Quadrupole moment (field-independent basis, Debye-Ang):
   XX=              0.2178   YY=              0.2697   ZZ=             -0.4875
   XY=             -0.0000   XZ=             -0.0000   YZ=             -0.0000
 Octapole moment (field-independent basis, Debye-Ang**2):
  XXX=              0.0000  YYY=              0.0000  ZZZ=              0.4198  XYY=              0.0000
  XXY=             -0.0000  XXZ=              0.5576  XZZ=              0.0000  YZZ=              0.0000
  YYZ=             -0.7741  XYZ=              0.0000
 Hexadecapole moment (field-independent basis, Debye-Ang**3):
 XXXX=            -10.8805 YYYY=            -18.3921 ZZZZ=            -47.4400 XXXY=             -0.0000
 XXXZ=             -0.0000 YYYX=             -0.0000 YYYZ=             -0.0000 ZZZX=             -0.0000
 ZZZY=              0.0000 XXYY=             -5.2049 XXZZ=             -9.5751 YYZZ=            -10.8316
 XXYZ=              0.0000 YYXZ=             -0.0000 ZZXY=             -0.0000
 N-N= 3.130655187279D+01 E-N=-3.309459373044D+02  KE= 1.140084156769D+02
 Symmetry A1   KE= 1.036928966637D+02
 Symmetry A2   KE= 2.439739871733D-02
 Symmetry B1   KE= 3.655025778167D+00
 Symmetry B2   KE= 6.636095836353D+00
 Calling FoFJK, ICntrl=  10002127 FMM=F ISym2X=1 I1Cent= 0 IOpClX= 0 NMat=1 NMatS=1 NMatT=0.
 ***** Axes restored to original set *****
 -------------------------------------------------------------------
 Center     Atomic                   Forces (Hartrees/Bohr)
 Number     Number              X              Y              Z
 -------------------------------------------------------------------
      1        8           0.000000000   -0.000000000   -0.014090899
      2        6          -0.000000000   -0.000000000   -0.022381254
      3        1           0.022283744    0.000000000    0.018236077
      4        1          -0.022283744    0.000000000    0.018236077
 -------------------------------------------------------------------
 Cartesian Forces:  Max     0.022381254 RMS     0.014016994

 GradGradGradGradGradGradGradGradGradGradGradGradGradGradGradGradGradGrad
 Berny optimization.
 FormGI is forming the generalized inverse of G from B-inverse, IUseBI=4.
 Internal  Forces:  Max     0.028416327 RMS     0.016355387
 Search for a local minimum.
 Step number   1 out of a maximum of   20
 All quantities printed in internal units (Hartrees-Bohrs-Radians)
 Mixed Optimization -- RFO/linear search
 Second derivative matrix not updated -- first step.
 The second derivative matrix:
                          R1        R2        R3        A1        A2
           R1           0.95383
           R2           0.00000   0.37230
           R3           0.00000   0.00000   0.37230
           A1           0.00000   0.00000   0.00000   0.16000
           A2           0.00000   0.00000   0.00000   0.00000   0.16000
           A3           0.00000   0.00000   0.00000   0.00000   0.00000
           D1           0.00000   0.00000   0.00000   0.00000   0.00000
                          A3        D1
           A3           0.16000
           D1           0.00000   0.00499
 ITU=  0
     Eigenvalues ---    0.00499   0.16000   0.16000   0.37230   0.37230
     Eigenvalues ---    0.95383
 RFO step:  Lambda=-4.84686323D-03 EMin= 4.99391781D-03
 Linear search not attempted -- first point.
 Iteration  1 RMS(Cart)=  0.03869100 RMS(Int)=  0.00066176
 Iteration  2 RMS(Cart)=  0.00068436 RMS(Int)=  0.00000028
 Iteration  3 RMS(Cart)=  0.00000024 RMS(Int)=  0.00000000
 ClnCor:  largest displacement from symmetrization is 6.48D-11 for atom     2.
 Variable       Old X    -DE/DX   Delta X   Delta X   Delta X     New X
                                 (Linear)    (Quad)   (Total)
    R1        2.30547   0.01409   0.00000   0.01470   0.01470   2.32016
    R2        2.02201   0.02842   0.00000   0.07535   0.07535   2.09735
    R3        2.02201   0.02842   0.00000   0.07535   0.07535   2.09735
    A1        2.09440   0.00313   0.00000   0.01902   0.01902   2.11341
    A2        2.09440   0.00313   0.00000   0.01902   0.01902   2.11341
    A3        2.09440  -0.00627   0.00000  -0.03803  -0.03803   2.05636
    D1        3.14159   0.00000   0.00000   0.00000   0.00000   3.14159
         Item               Value     Threshold  Converged?
 Maximum Force            0.028416     0.000002     NO 
 RMS     Force            0.016355     0.000001     NO 
 Maximum Displacement     0.047035     0.000006     NO 
 RMS     Displacement     0.038646     0.000004     NO 
 Predicted change in Energy=-2.456729D-03
 GradGradGradGradGradGradGradGradGradGradGradGradGradGradGradGradGradGrad

                          Input orientation:                          
 ---------------------------------------------------------------------
 Center     Atomic      Atomic             Coordinates (Angstroms)
 Number     Number       Type             X           Y           Z
 ---------------------------------------------------------------------
      1          8           0        0.000000   -0.000000   -0.024890
      2          6           0       -0.000000    0.000000    1.202888
      3          1           0        0.950450    0.000000    1.776001
      4          1           0       -0.950450   -0.000000    1.776001
 ---------------------------------------------------------------------
                    Distance matrix (angstroms):
                    1          2          3          4
     1  O    0.000000
     2  C    1.227778   0.000000
     3  H    2.036311   1.109871   0.000000
     4  H    2.036311   1.109871   1.900901   0.000000
 Stoichiometry    CH2O
 Framework group  C2V[C2(CO),SGV(H2)]
 Deg. of freedom     3
 Full point group                 C2V     NOp   4
 Largest Abelian subgroup         C2V     NOp   4
 Largest concise Abelian subgroup C2      NOp   2
                         Standard orientation:                         
 ---------------------------------------------------------------------
 Center     Atomic      Atomic             Coordinates (Angstroms)
 Number     Number       Type             X           Y           Z
 ---------------------------------------------------------------------
      1          8           0       -0.000000   -0.000000    0.685528
      2          6           0        0.000000    0.000000   -0.542250
      3          1           0       -0.000000    0.950450   -1.115362
      4          1           0       -0.000000   -0.950450   -1.115362
 ---------------------------------------------------------------------
 Rotational constants (GHZ):         277.5512074          37.7429337          33.2248382
 Standard basis: Aug-CC-pVDZ (5D, 7F)
 There are    33 symmetry adapted cartesian basis functions of A1  symmetry.
 There are     6 symmetry adapted cartesian basis functions of A2  symmetry.
 There are    12 symmetry adapted cartesian basis functions of B1  symmetry.
 There are    17 symmetry adapted cartesian basis functions of B2  symmetry.
 There are    29 symmetry adapted basis functions of A1  symmetry.
 There are     6 symmetry adapted basis functions of A2  symmetry.
 There are    12 symmetry adapted basis functions of B1  symmetry.
 There are    17 symmetry adapted basis functions of B2  symmetry.
    64 basis functions,   108 primitive gaussians,    68 cartesian basis functions
     8 alpha electrons        8 beta electrons
       nuclear repulsion energy        30.8460024401 Hartrees.
 NAtoms=    4 NActive=    4 NUniq=    3 SFac= 1.78D+00 NAtFMM=   60 NAOKFM=F Big=F
 Integral buffers will be    131072 words long.
 Raffenetti 1 integral format.
 Two-electron integral symmetry is turned on.
 One-electron integrals computed using PRISM.
 NBasis=    64 RedAO= T EigKep=  7.96D-04  NBF=    29     6    12    17
 NBsUse=    64 1.00D-06 EigRej= -1.00D+00 NBFU=    29     6    12    17
 Initial guess from the checkpoint file:  "OCHH_freq_16.chk"
 B after Tr=    -0.000000    0.000000    0.000000
         Rot=    1.000000   -0.000000   -0.000000   -0.000000 Ang=   0.00 deg.
 Initial guess orbital symmetries:
       Occupied  (A1) (A1) (A1) (A1) (B2) (A1) (B1) (B2)
       Virtual   (A1) (B2) (B1) (A1) (B1) (B2) (A1) (A1) (A1) (B2)
                 (B1) (A1) (A2) (B2) (A1) (B1) (B2) (A1) (B2) (A1)
                 (A2) (B1) (A1) (B2) (A1) (B1) (A1) (B2) (A1) (B2)
                 (A2) (B1) (A1) (A1) (A2) (B2) (A1) (B1) (B2) (B1)
                 (A1) (B2) (A1) (B1) (A1) (A2) (B2) (A1) (A1) (B2)
                 (A1) (A2) (A1) (B1) (B2) (A1)
 ExpMin= 2.97D-02 ExpMax= 1.17D+04 ExpMxC= 4.01D+02 IAcc=3 IRadAn=         5 AccDes= 0.00D+00
 Harris functional with IExCor=  205 and IRadAn=       5 diagonalized for initial guess.
 HarFok:  IExCor=  205 AccDes= 0.00D+00 IRadAn=         5 IDoV= 1 UseB2=F ITyADJ=14
 ICtDFT=  3500011 ScaDFX=  1.000000  1.000000  1.000000  1.000000
 FoFCou: FMM=F IPFlag=           0 FMFlag=      100000 FMFlg1=           0
         NFxFlg=           0 DoJE=T BraDBF=F KetDBF=T FulRan=T
         wScrn=  0.000000 ICntrl=       500 IOpCl=  0 I1Cent=   200000004 NGrid=           0
         NMat0=    1 NMatS0=      1 NMatT0=    0 NMatD0=    1 NMtDS0=    0 NMtDT0=    0
 Petite list used in FoFCou.
 Keep R1 ints in memory in symmetry-blocked form, NReq=7997789.
 Requested convergence on RMS density matrix=1.00D-08 within 128 cycles.
 Requested convergence on MAX density matrix=1.00D-06.
 Requested convergence on             energy=1.00D-06.
 No special actions if energy rises.
 SCF Done:  E(RHF) =  -113.882678222     A.U. after   10 cycles
            NFock= 10  Conv=0.36D-08     -V/T= 2.0028
 ExpMin= 2.97D-02 ExpMax= 1.17D+04 ExpMxC= 4.01D+02 IAcc=3 IRadAn=         5 AccDes= 0.00D+00
 HarFok:  IExCor=  205 AccDes= 0.00D+00 IRadAn=         5 IDoV=-2 UseB2=F ITyADJ=14
 ICtDFT= 12500011 ScaDFX=  1.000000  1.000000  1.000000  1.000000
 Range of M.O.s used for correlation:     3    64
 NBasis=    64 NAE=     8 NBE=     8 NFC=     2 NFV=     0
 NROrb=     62 NOA=     6 NOB=     6 NVA=    56 NVB=    56

 **** Warning!!: The largest alpha MO coefficient is  0.11357749D+02

 Fully direct method using O(ONN) memory.
 JobTyp=1 Pass  1:  I=   3 to   8 NPSUse= 10 ParTrn=T ParDer=T DoDerP=T.
 Spin components of T(2) and E(2):
     alpha-alpha T2 =       0.1339852353D-01 E2=     -0.4192402595D-01
     alpha-beta  T2 =       0.8112370288D-01 E2=     -0.2523007633D+00
     beta-beta   T2 =       0.1339852353D-01 E2=     -0.4192402595D-01
 ANorm=    0.1052578144D+01
 E2 =    -0.3361488152D+00 EUMP2 =    -0.11421882703669D+03
          IDoAtm=1111
          Differentiating once with respect to electric field.
                with respect to dipole field.
          Differentiating once with respect to nuclear coordinates.
 Keep R1 ints in memory in symmetry-blocked form, NReq=7999015.
          There are     1 degrees of freedom in the 1st order CPHF.  IDoFFX=0 NUNeed=     1.
 LinEq1:  Iter=  0 NonCon=     1 RMS=8.53D-03 Max=7.97D-02 NDo=     1
 AX will form     1 AO Fock derivatives at one time.
 LinEq1:  Iter=  1 NonCon=     1 RMS=2.76D-03 Max=1.87D-02 NDo=     1
 LinEq1:  Iter=  2 NonCon=     1 RMS=8.23D-04 Max=6.84D-03 NDo=     1
 LinEq1:  Iter=  3 NonCon=     1 RMS=2.38D-04 Max=1.88D-03 NDo=     1
 LinEq1:  Iter=  4 NonCon=     1 RMS=6.13D-05 Max=4.31D-04 NDo=     1
 LinEq1:  Iter=  5 NonCon=     1 RMS=1.47D-05 Max=1.08D-04 NDo=     1
 LinEq1:  Iter=  6 NonCon=     1 RMS=2.92D-06 Max=2.13D-05 NDo=     1
 LinEq1:  Iter=  7 NonCon=     1 RMS=4.09D-07 Max=2.86D-06 NDo=     1
 LinEq1:  Iter=  8 NonCon=     1 RMS=4.41D-08 Max=2.22D-07 NDo=     1
 LinEq1:  Iter=  9 NonCon=     1 RMS=4.79D-09 Max=3.18D-08 NDo=     1
 LinEq1:  Iter= 10 NonCon=     1 RMS=4.25D-10 Max=2.28D-09 NDo=     1
 LinEq1:  Iter= 11 NonCon=     0 RMS=3.53D-11 Max=1.76D-10 NDo=     1
 Linear equations converged to 1.000D-10 1.000D-09 after    11 iterations.
 End of Minotr F.D. properties file   721 does not exist.
 End of Minotr F.D. properties file   722 does not exist.
 End of Minotr F.D. properties file   788 does not exist.
 Calling FoFJK, ICntrl=  10002127 FMM=F ISym2X=1 I1Cent= 0 IOpClX= 0 NMat=1 NMatS=1 NMatT=0.
 ***** Axes restored to original set *****
 -------------------------------------------------------------------
 Center     Atomic                   Forces (Hartrees/Bohr)
 Number     Number              X              Y              Z
 -------------------------------------------------------------------
      1        8          -0.000000000   -0.000000000    0.004661060
      2        6          -0.000000000   -0.000000000   -0.007781004
      3        1          -0.000340965    0.000000000    0.001559972
      4        1           0.000340965    0.000000000    0.001559972
 -------------------------------------------------------------------
 Cartesian Forces:  Max     0.007781004 RMS     0.002698287

 GradGradGradGradGradGradGradGradGradGradGradGradGradGradGradGradGradGrad
 Berny optimization.
 Using GEDIIS/GDIIS optimizer.
 FormGI is forming the generalized inverse of G from B-inverse, IUseBI=4.
 Internal  Forces:  Max     0.004661060 RMS     0.002033890
 Search for a local minimum.
 Step number   2 out of a maximum of   20
 All quantities printed in internal units (Hartrees-Bohrs-Radians)
 Mixed Optimization -- RFO/linear search
 Update second derivatives using D2CorX and points    1    2
 DE= -2.41D-03 DEPred=-2.46D-03 R= 9.79D-01
 TightC=F SS=  1.41D+00  RLast= 1.17D-01 DXNew= 5.0454D-01 3.5165D-01
 Trust test= 9.79D-01 RLast= 1.17D-01 DXMaxT set to 3.52D-01
 The second derivative matrix:
                          R1        R2        R3        A1        A2
           R1           0.98726
           R2           0.02865   0.37274
           R3           0.02865   0.00043   0.37274
           A1          -0.00066  -0.00556  -0.00556   0.15898
           A2          -0.00066  -0.00556  -0.00556  -0.00102   0.15898
           A3           0.00133   0.01113   0.01113   0.00204   0.00204
           D1          -0.00000  -0.00000  -0.00000  -0.00000  -0.00000
                          A3        D1
           A3           0.15591
           D1           0.00000   0.00499
 ITU=  1  0
 Use linear search instead of GDIIS.
     Eigenvalues ---    0.00499   0.15219   0.16000   0.37219   0.37230
     Eigenvalues ---    0.98993
 RFO step:  Lambda=-6.75038480D-05 EMin= 4.99391781D-03
 Quartic linear search produced a step of  0.03070.
 Iteration  1 RMS(Cart)=  0.00550979 RMS(Int)=  0.00003000
 Iteration  2 RMS(Cart)=  0.00003021 RMS(Int)=  0.00000000
 Iteration  3 RMS(Cart)=  0.00000000 RMS(Int)=  0.00000000
 ClnCor:  largest displacement from symmetrization is 2.67D-11 for atom     2.
 Variable       Old X    -DE/DX   Delta X   Delta X   Delta X     New X
                                 (Linear)    (Quad)   (Total)
    R1        2.32016  -0.00466   0.00045  -0.00528  -0.00483   2.31534
    R2        2.09735   0.00051   0.00231   0.00030   0.00261   2.09997
    R3        2.09735   0.00051   0.00231   0.00030   0.00261   2.09997
    A1        2.11341   0.00106   0.00058   0.00659   0.00717   2.12058
    A2        2.11341   0.00106   0.00058   0.00659   0.00717   2.12058
    A3        2.05636  -0.00211  -0.00117  -0.01318  -0.01435   2.04202
    D1        3.14159   0.00000   0.00000   0.00000   0.00000   3.14159
         Item               Value     Threshold  Converged?
 Maximum Force            0.004661     0.000002     NO 
 RMS     Force            0.002034     0.000001     NO 
 Maximum Displacement     0.008317     0.000006     NO 
 RMS     Displacement     0.005522     0.000004     NO 
 Predicted change in Energy=-3.471158D-05
 GradGradGradGradGradGradGradGradGradGradGradGradGradGradGradGradGradGrad

                          Input orientation:                          
 ---------------------------------------------------------------------
 Center     Atomic      Atomic             Coordinates (Angstroms)
 Number     Number       Type             X           Y           Z
 ---------------------------------------------------------------------
      1          8           0        0.000000   -0.000000   -0.026736
      2          6           0       -0.000000    0.000000    1.198487
      3          1           0        0.947494    0.000000    1.779125
      4          1           0       -0.947494   -0.000000    1.779125
 ---------------------------------------------------------------------
                    Distance matrix (angstroms):
                    1          2          3          4
     1  O    0.000000
     2  C    1.225224   0.000000
     3  H    2.039333   1.111254   0.000000
     4  H    2.039333   1.111254   1.894989   0.000000
 Stoichiometry    CH2O
 Framework group  C2V[C2(CO),SGV(H2)]
 Deg. of freedom     3
 Full point group                 C2V     NOp   4
 Largest Abelian subgroup         C2V     NOp   4
 Largest concise Abelian subgroup C2      NOp   2
                         Standard orientation:                         
 ---------------------------------------------------------------------
 Center     Atomic      Atomic             Coordinates (Angstroms)
 Number     Number       Type             X           Y           Z
 ---------------------------------------------------------------------
      1          8           0        0.000000   -0.000000    0.685192
      2          6           0        0.000000    0.000000   -0.540032
      3          1           0       -0.000000    0.947494   -1.120670
      4          1           0       -0.000000   -0.947494   -1.120670
 ---------------------------------------------------------------------
 Rotational constants (GHZ):         279.2857178          37.7819169          33.2798073
 Standard basis: Aug-CC-pVDZ (5D, 7F)
 There are    33 symmetry adapted cartesian basis functions of A1  symmetry.
 There are     6 symmetry adapted cartesian basis functions of A2  symmetry.
 There are    12 symmetry adapted cartesian basis functions of B1  symmetry.
 There are    17 symmetry adapted cartesian basis functions of B2  symmetry.
 There are    29 symmetry adapted basis functions of A1  symmetry.
 There are     6 symmetry adapted basis functions of A2  symmetry.
 There are    12 symmetry adapted basis functions of B1  symmetry.
 There are    17 symmetry adapted basis functions of B2  symmetry.
    64 basis functions,   108 primitive gaussians,    68 cartesian basis functions
     8 alpha electrons        8 beta electrons
       nuclear repulsion energy        30.8767182599 Hartrees.
 NAtoms=    4 NActive=    4 NUniq=    3 SFac= 1.78D+00 NAtFMM=   60 NAOKFM=F Big=F
 Integral buffers will be    131072 words long.
 Raffenetti 1 integral format.
 Two-electron integral symmetry is turned on.
 One-electron integrals computed using PRISM.
 NBasis=    64 RedAO= T EigKep=  7.98D-04  NBF=    29     6    12    17
 NBsUse=    64 1.00D-06 EigRej= -1.00D+00 NBFU=    29     6    12    17
 Initial guess from the checkpoint file:  "OCHH_freq_16.chk"
 B after Tr=     0.000000   -0.000000   -0.000000
         Rot=    1.000000    0.000000   -0.000000   -0.000000 Ang=   0.00 deg.
 Initial guess orbital symmetries:
       Occupied  (A1) (A1) (A1) (A1) (B2) (A1) (B1) (B2)
       Virtual   (A1) (B2) (B1) (A1) (B1) (B2) (A1) (A1) (A1) (B2)
                 (B1) (A1) (A2) (B2) (A1) (B1) (B2) (A1) (B2) (A1)
                 (A2) (B1) (A1) (B2) (A1) (B1) (A1) (B2) (A1) (A2)
                 (B2) (B1) (A1) (A1) (A2) (B2) (B1) (A1) (B2) (B1)
                 (A1) (B2) (A1) (B1) (A1) (A2) (B2) (A1) (A1) (B2)
                 (A1) (A2) (A1) (B1) (B2) (A1)
 Keep R1 ints in memory in symmetry-blocked form, NReq=7997789.
 Requested convergence on RMS density matrix=1.00D-08 within 128 cycles.
 Requested convergence on MAX density matrix=1.00D-06.
 Requested convergence on             energy=1.00D-06.
 No special actions if energy rises.
 SCF Done:  E(RHF) =  -113.882968964     A.U. after    9 cycles
            NFock=  9  Conv=0.55D-08     -V/T= 2.0028
 ExpMin= 2.97D-02 ExpMax= 1.17D+04 ExpMxC= 4.01D+02 IAcc=3 IRadAn=         5 AccDes= 0.00D+00
 HarFok:  IExCor=  205 AccDes= 0.00D+00 IRadAn=         5 IDoV=-2 UseB2=F ITyADJ=14
 ICtDFT= 12500011 ScaDFX=  1.000000  1.000000  1.000000  1.000000
 Range of M.O.s used for correlation:     3    64
 NBasis=    64 NAE=     8 NBE=     8 NFC=     2 NFV=     0
 NROrb=     62 NOA=     6 NOB=     6 NVA=    56 NVB=    56

 **** Warning!!: The largest alpha MO coefficient is  0.11322995D+02

 Fully direct method using O(ONN) memory.
 JobTyp=1 Pass  1:  I=   3 to   8 NPSUse= 10 ParTrn=T ParDer=T DoDerP=T.
 Spin components of T(2) and E(2):
     alpha-alpha T2 =       0.1336935254D-01 E2=     -0.4188892476D-01
     alpha-beta  T2 =       0.8096479153D-01 E2=     -0.2521258414D+00
     beta-beta   T2 =       0.1336935254D-01 E2=     -0.4188892476D-01
 ANorm=    0.1052474939D+01
 E2 =    -0.3359036910D+00 EUMP2 =    -0.11421887265507D+03
          IDoAtm=1111
          Differentiating once with respect to electric field.
                with respect to dipole field.
          Differentiating once with respect to nuclear coordinates.
 Keep R1 ints in memory in symmetry-blocked form, NReq=7999015.
          There are     1 degrees of freedom in the 1st order CPHF.  IDoFFX=0 NUNeed=     1.
 LinEq1:  Iter=  0 NonCon=     1 RMS=8.50D-03 Max=7.94D-02 NDo=     1
 AX will form     1 AO Fock derivatives at one time.
 LinEq1:  Iter=  1 NonCon=     1 RMS=2.75D-03 Max=1.86D-02 NDo=     1
 LinEq1:  Iter=  2 NonCon=     1 RMS=8.17D-04 Max=6.76D-03 NDo=     1
 LinEq1:  Iter=  3 NonCon=     1 RMS=2.35D-04 Max=1.84D-03 NDo=     1
 LinEq1:  Iter=  4 NonCon=     1 RMS=6.00D-05 Max=4.23D-04 NDo=     1
 LinEq1:  Iter=  5 NonCon=     1 RMS=1.42D-05 Max=1.05D-04 NDo=     1
 LinEq1:  Iter=  6 NonCon=     1 RMS=2.87D-06 Max=2.10D-05 NDo=     1
 LinEq1:  Iter=  7 NonCon=     1 RMS=4.03D-07 Max=2.85D-06 NDo=     1
 LinEq1:  Iter=  8 NonCon=     1 RMS=4.35D-08 Max=2.19D-07 NDo=     1
 LinEq1:  Iter=  9 NonCon=     1 RMS=4.71D-09 Max=3.16D-08 NDo=     1
 LinEq1:  Iter= 10 NonCon=     1 RMS=4.20D-10 Max=2.25D-09 NDo=     1
 LinEq1:  Iter= 11 NonCon=     0 RMS=3.50D-11 Max=1.70D-10 NDo=     1
 Linear equations converged to 1.000D-10 1.000D-09 after    11 iterations.
 End of Minotr F.D. properties file   721 does not exist.
 End of Minotr F.D. properties file   722 does not exist.
 End of Minotr F.D. properties file   788 does not exist.
 Calling FoFJK, ICntrl=  10002127 FMM=F ISym2X=1 I1Cent= 0 IOpClX= 0 NMat=1 NMatS=1 NMatT=0.
 ***** Axes restored to original set *****
 -------------------------------------------------------------------
 Center     Atomic                   Forces (Hartrees/Bohr)
 Number     Number              X              Y              Z
 -------------------------------------------------------------------
      1        8          -0.000000000   -0.000000000    0.001924219
      2        6           0.000000000   -0.000000000   -0.002552866
      3        1          -0.000198118    0.000000000    0.000314324
      4        1           0.000198118    0.000000000    0.000314324
 -------------------------------------------------------------------
 Cartesian Forces:  Max     0.002552866 RMS     0.000935229

 GradGradGradGradGradGradGradGradGradGradGradGradGradGradGradGradGradGrad
 Berny optimization.
 Using GEDIIS/GDIIS optimizer.
 FormGI is forming the generalized inverse of G from B-inverse, IUseBI=4.
 Internal  Forces:  Max     0.001924219 RMS     0.000766108
 Search for a local minimum.
 Step number   3 out of a maximum of   20
 All quantities printed in internal units (Hartrees-Bohrs-Radians)
 Mixed Optimization -- En-DIIS/RFO-DIIS
 Update second derivatives using D2CorX and points    1    2    3
 DE= -4.56D-05 DEPred=-3.47D-05 R= 1.31D+00
 TightC=F SS=  1.41D+00  RLast= 1.86D-02 DXNew= 5.9140D-01 5.5775D-02
 Trust test= 1.31D+00 RLast= 1.86D-02 DXMaxT set to 3.52D-01
 The second derivative matrix:
                          R1        R2        R3        A1        A2
           R1           0.84325
           R2           0.04321   0.37509
           R3           0.04321   0.00279   0.37509
           A1           0.02574  -0.00606  -0.00606   0.15547
           A2           0.02574  -0.00606  -0.00606  -0.00453   0.15547
           A3          -0.05148   0.01212   0.01212   0.00905   0.00905
           D1          -0.00000  -0.00000  -0.00000   0.00000   0.00000
                          A3        D1
           A3           0.14190
           D1          -0.00000   0.00499
 ITU=  1  1  0
 Use linear search instead of GDIIS.
     Eigenvalues ---    0.00499   0.12452   0.16000   0.37230   0.37336
     Eigenvalues ---    0.85610
 RFO step:  Lambda=-1.05875008D-06 EMin= 4.99391781D-03
 Quartic linear search produced a step of  0.40373.
 Iteration  1 RMS(Cart)=  0.00192944 RMS(Int)=  0.00000362
 Iteration  2 RMS(Cart)=  0.00000354 RMS(Int)=  0.00000000
 Iteration  3 RMS(Cart)=  0.00000000 RMS(Int)=  0.00000000
 ClnCor:  largest displacement from symmetrization is 2.86D-11 for atom     2.
 Variable       Old X    -DE/DX   Delta X   Delta X   Delta X     New X
                                 (Linear)    (Quad)   (Total)
    R1        2.31534  -0.00192  -0.00195  -0.00085  -0.00280   2.31254
    R2        2.09997  -0.00000   0.00106  -0.00051   0.00055   2.10051
    R3        2.09997  -0.00000   0.00106  -0.00051   0.00055   2.10051
    A1        2.12058   0.00026   0.00290  -0.00037   0.00252   2.12311
    A2        2.12058   0.00026   0.00290  -0.00037   0.00252   2.12311
    A3        2.04202  -0.00052  -0.00579   0.00075  -0.00504   2.03697
    D1        3.14159   0.00000   0.00000   0.00000   0.00000   3.14159
         Item               Value     Threshold  Converged?
 Maximum Force            0.001924     0.000002     NO 
 RMS     Force            0.000766     0.000001     NO 
 Maximum Displacement     0.003098     0.000006     NO 
 RMS     Displacement     0.001931     0.000004     NO 
 Predicted change in Energy=-4.687511D-06
 GradGradGradGradGradGradGradGradGradGradGradGradGradGradGradGradGradGrad

                          Input orientation:                          
 ---------------------------------------------------------------------
 Center     Atomic      Atomic             Coordinates (Angstroms)
 Number     Number       Type             X           Y           Z
 ---------------------------------------------------------------------
      1          8           0       -0.000000   -0.000000   -0.026896
      2          6           0        0.000000    0.000000    1.196848
      3          1           0        0.946274    0.000000    1.780024
      4          1           0       -0.946274   -0.000000    1.780024
 ---------------------------------------------------------------------
                    Distance matrix (angstroms):
                    1          2          3          4
     1  O    0.000000
     2  C    1.223744   0.000000
     3  H    2.039704   1.111543   0.000000
     4  H    2.039704   1.111543   1.892548   0.000000
 Stoichiometry    CH2O
 Framework group  C2V[C2(CO),SGV(H2)]
 Deg. of freedom     3
 Full point group                 C2V     NOp   4
 Largest Abelian subgroup         C2V     NOp   4
 Largest concise Abelian subgroup C2      NOp   2
                         Standard orientation:                         
 ---------------------------------------------------------------------
 Center     Atomic      Atomic             Coordinates (Angstroms)
 Number     Number       Type             X           Y           Z
 ---------------------------------------------------------------------
      1          8           0       -0.000000    0.000000    0.684769
      2          6           0        0.000000    0.000000   -0.538975
      3          1           0        0.000000    0.946274   -1.122151
      4          1           0       -0.000000   -0.946274   -1.122151
 ---------------------------------------------------------------------
 Rotational constants (GHZ):         280.0067100          37.8291169          33.3266601
 Standard basis: Aug-CC-pVDZ (5D, 7F)
 There are    33 symmetry adapted cartesian basis functions of A1  symmetry.
 There are     6 symmetry adapted cartesian basis functions of A2  symmetry.
 There are    12 symmetry adapted cartesian basis functions of B1  symmetry.
 There are    17 symmetry adapted cartesian basis functions of B2  symmetry.
 There are    29 symmetry adapted basis functions of A1  symmetry.
 There are     6 symmetry adapted basis functions of A2  symmetry.
 There are    12 symmetry adapted basis functions of B1  symmetry.
 There are    17 symmetry adapted basis functions of B2  symmetry.
    64 basis functions,   108 primitive gaussians,    68 cartesian basis functions
     8 alpha electrons        8 beta electrons
       nuclear repulsion energy        30.8999078104 Hartrees.
 NAtoms=    4 NActive=    4 NUniq=    3 SFac= 1.78D+00 NAtFMM=   60 NAOKFM=F Big=F
 Integral buffers will be    131072 words long.
 Raffenetti 1 integral format.
 Two-electron integral symmetry is turned on.
 One-electron integrals computed using PRISM.
 NBasis=    64 RedAO= T EigKep=  7.97D-04  NBF=    29     6    12    17
 NBsUse=    64 1.00D-06 EigRej= -1.00D+00 NBFU=    29     6    12    17
 Initial guess from the checkpoint file:  "OCHH_freq_16.chk"
 B after Tr=     0.000000    0.000000    0.000000
         Rot=    1.000000    0.000000    0.000000    0.000000 Ang=   0.00 deg.
 Initial guess orbital symmetries:
       Occupied  (A1) (A1) (A1) (A1) (B2) (A1) (B1) (B2)
       Virtual   (A1) (B2) (B1) (A1) (B1) (B2) (A1) (A1) (A1) (B2)
                 (B1) (A1) (A2) (B2) (A1) (B1) (B2) (A1) (B2) (A1)
                 (A2) (B1) (A1) (B2) (A1) (B1) (A1) (B2) (A1) (A2)
                 (B2) (B1) (A1) (A1) (A2) (B2) (B1) (A1) (B2) (B1)
                 (A1) (B2) (A1) (B1) (A1) (A2) (B2) (A1) (A1) (B2)
                 (A1) (A2) (A1) (B1) (B2) (A1)
 Keep R1 ints in memory in symmetry-blocked form, NReq=7997789.
 Requested convergence on RMS density matrix=1.00D-08 within 128 cycles.
 Requested convergence on MAX density matrix=1.00D-06.
 Requested convergence on             energy=1.00D-06.
 No special actions if energy rises.
 SCF Done:  E(RHF) =  -113.883142725     A.U. after    9 cycles
            NFock=  9  Conv=0.29D-08     -V/T= 2.0027
 ExpMin= 2.97D-02 ExpMax= 1.17D+04 ExpMxC= 4.01D+02 IAcc=3 IRadAn=         5 AccDes= 0.00D+00
 HarFok:  IExCor=  205 AccDes= 0.00D+00 IRadAn=         5 IDoV=-2 UseB2=F ITyADJ=14
 ICtDFT= 12500011 ScaDFX=  1.000000  1.000000  1.000000  1.000000
 Range of M.O.s used for correlation:     3    64
 NBasis=    64 NAE=     8 NBE=     8 NFC=     2 NFV=     0
 NROrb=     62 NOA=     6 NOB=     6 NVA=    56 NVB=    56

 **** Warning!!: The largest alpha MO coefficient is  0.11314001D+02

 Fully direct method using O(ONN) memory.
 JobTyp=1 Pass  1:  I=   3 to   8 NPSUse= 10 ParTrn=T ParDer=T DoDerP=T.
 Spin components of T(2) and E(2):
     alpha-alpha T2 =       0.1334979375D-01 E2=     -0.4186582716D-01
     alpha-beta  T2 =       0.8085446206D-01 E2=     -0.2520029691D+00
     beta-beta   T2 =       0.1334979375D-01 E2=     -0.4186582716D-01
 ANorm=    0.1052403938D+01
 E2 =    -0.3357346234D+00 EUMP2 =    -0.11421887734815D+03
          IDoAtm=1111
          Differentiating once with respect to electric field.
                with respect to dipole field.
          Differentiating once with respect to nuclear coordinates.
 Keep R1 ints in memory in symmetry-blocked form, NReq=7999015.
          There are     1 degrees of freedom in the 1st order CPHF.  IDoFFX=0 NUNeed=     1.
 LinEq1:  Iter=  0 NonCon=     1 RMS=8.48D-03 Max=7.92D-02 NDo=     1
 AX will form     1 AO Fock derivatives at one time.
 LinEq1:  Iter=  1 NonCon=     1 RMS=2.74D-03 Max=1.85D-02 NDo=     1
 LinEq1:  Iter=  2 NonCon=     1 RMS=8.12D-04 Max=6.71D-03 NDo=     1
 LinEq1:  Iter=  3 NonCon=     1 RMS=2.33D-04 Max=1.81D-03 NDo=     1
 LinEq1:  Iter=  4 NonCon=     1 RMS=5.92D-05 Max=4.18D-04 NDo=     1
 LinEq1:  Iter=  5 NonCon=     1 RMS=1.39D-05 Max=1.03D-04 NDo=     1
 LinEq1:  Iter=  6 NonCon=     1 RMS=2.83D-06 Max=2.09D-05 NDo=     1
 LinEq1:  Iter=  7 NonCon=     1 RMS=3.99D-07 Max=2.83D-06 NDo=     1
 LinEq1:  Iter=  8 NonCon=     1 RMS=4.31D-08 Max=2.17D-07 NDo=     1
 LinEq1:  Iter=  9 NonCon=     1 RMS=4.67D-09 Max=3.13D-08 NDo=     1
 LinEq1:  Iter= 10 NonCon=     1 RMS=4.16D-10 Max=2.24D-09 NDo=     1
 LinEq1:  Iter= 11 NonCon=     0 RMS=3.48D-11 Max=1.67D-10 NDo=     1
 Linear equations converged to 1.000D-10 1.000D-09 after    11 iterations.
 End of Minotr F.D. properties file   721 does not exist.
 End of Minotr F.D. properties file   722 does not exist.
 End of Minotr F.D. properties file   788 does not exist.
 Calling FoFJK, ICntrl=  10002127 FMM=F ISym2X=1 I1Cent= 0 IOpClX= 0 NMat=1 NMatS=1 NMatT=0.
 ***** Axes restored to original set *****
 -------------------------------------------------------------------
 Center     Atomic                   Forces (Hartrees/Bohr)
 Number     Number              X              Y              Z
 -------------------------------------------------------------------
      1        8           0.000000000   -0.000000000    0.000055919
      2        6          -0.000000000   -0.000000000   -0.000016872
      3        1          -0.000020566    0.000000000   -0.000019523
      4        1           0.000020566    0.000000000   -0.000019523
 -------------------------------------------------------------------
 Cartesian Forces:  Max     0.000055919 RMS     0.000020453

 GradGradGradGradGradGradGradGradGradGradGradGradGradGradGradGradGradGrad
 Berny optimization.
 Using GEDIIS/GDIIS optimizer.
 FormGI is forming the generalized inverse of G from B-inverse, IUseBI=4.
 Internal  Forces:  Max     0.000055919 RMS     0.000026096
 Search for a local minimum.
 Step number   4 out of a maximum of   20
 All quantities printed in internal units (Hartrees-Bohrs-Radians)
 Mixed Optimization -- En-DIIS/RFO-DIIS
 Swapping is turned off.
 Update second derivatives using D2CorX and points    1    2    3    4
 DE= -4.69D-06 DEPred=-4.69D-06 R= 1.00D+00
 TightC=F SS=  1.41D+00  RLast= 6.82D-03 DXNew= 5.9140D-01 2.0468D-02
 Trust test= 1.00D+00 RLast= 6.82D-03 DXMaxT set to 3.52D-01
 The second derivative matrix:
                          R1        R2        R3        A1        A2
           R1           0.81297
           R2           0.02942   0.37103
           R3           0.02942  -0.00128   0.37103
           A1           0.02467  -0.00639  -0.00639   0.15582
           A2           0.02467  -0.00639  -0.00639  -0.00418   0.15582
           A3          -0.04933   0.01278   0.01278   0.00836   0.00836
           D1          -0.00000  -0.00000  -0.00000   0.00000   0.00000
                          A3        D1
           A3           0.14327
           D1          -0.00000   0.00499
 ITU=  1  1  1  0
     Eigenvalues ---    0.00499   0.12682   0.16000   0.36904   0.37230
     Eigenvalues ---    0.82177
 En-DIIS/RFO-DIIS/Sim-DIIS IScMMF=       -3 using points:     4    3
 RFO step:  Lambda=-7.27221682D-09.
 DidBck=F Rises=F RFO-DIIS coefs:    0.99321    0.00679
 Iteration  1 RMS(Cart)=  0.00004949 RMS(Int)=  0.00000000
 Iteration  2 RMS(Cart)=  0.00000000 RMS(Int)=  0.00000000
 ClnCor:  largest displacement from symmetrization is 9.15D-14 for atom     2.
 Variable       Old X    -DE/DX   Delta X   Delta X   Delta X     New X
                                 (Linear)    (Quad)   (Total)
    R1        2.31254  -0.00006   0.00002  -0.00008  -0.00006   2.31248
    R2        2.10051  -0.00003  -0.00000  -0.00007  -0.00007   2.10044
    R3        2.10051  -0.00003  -0.00000  -0.00007  -0.00007   2.10044
    A1        2.12311  -0.00000  -0.00002  -0.00001  -0.00003   2.12308
    A2        2.12311  -0.00000  -0.00002  -0.00001  -0.00003   2.12308
    A3        2.03697   0.00001   0.00003   0.00002   0.00005   2.03703
    D1        3.14159   0.00000   0.00000   0.00000   0.00000   3.14159
         Item               Value     Threshold  Converged?
 Maximum Force            0.000056     0.000002     NO 
 RMS     Force            0.000026     0.000001     NO 
 Maximum Displacement     0.000087     0.000006     NO 
 RMS     Displacement     0.000049     0.000004     NO 
 Predicted change in Energy=-3.993978D-09
 GradGradGradGradGradGradGradGradGradGradGradGradGradGradGradGradGradGrad

                          Input orientation:                          
 ---------------------------------------------------------------------
 Center     Atomic      Atomic             Coordinates (Angstroms)
 Number     Number       Type             X           Y           Z
 ---------------------------------------------------------------------
      1          8           0        0.000000   -0.000000   -0.026850
      2          6           0       -0.000000    0.000000    1.196863
      3          1           0        0.946256    0.000000    1.779993
      4          1           0       -0.946256   -0.000000    1.779993
 ---------------------------------------------------------------------
                    Distance matrix (angstroms):
                    1          2          3          4
     1  O    0.000000
     2  C    1.223713   0.000000
     3  H    2.039628   1.111504   0.000000
     4  H    2.039628   1.111504   1.892513   0.000000
 Stoichiometry    CH2O
 Framework group  C2V[C2(CO),SGV(H2)]
 Deg. of freedom     3
 Full point group                 C2V     NOp   4
 Largest Abelian subgroup         C2V     NOp   4
 Largest concise Abelian subgroup C2      NOp   2
                         Standard orientation:                         
 ---------------------------------------------------------------------
 Center     Atomic      Atomic             Coordinates (Angstroms)
 Number     Number       Type             X           Y           Z
 ---------------------------------------------------------------------
      1          8           0        0.000000   -0.000000    0.684748
      2          6           0        0.000000    0.000000   -0.538965
      3          1           0       -0.000000    0.946256   -1.122096
      4          1           0       -0.000000   -0.946256   -1.122096
 ---------------------------------------------------------------------
 Rotational constants (GHZ):         280.0170749          37.8314537          33.3286206
 Standard basis: Aug-CC-pVDZ (5D, 7F)
 There are    33 symmetry adapted cartesian basis functions of A1  symmetry.
 There are     6 symmetry adapted cartesian basis functions of A2  symmetry.
 There are    12 symmetry adapted cartesian basis functions of B1  symmetry.
 There are    17 symmetry adapted cartesian basis functions of B2  symmetry.
 There are    29 symmetry adapted basis functions of A1  symmetry.
 There are     6 symmetry adapted basis functions of A2  symmetry.
 There are    12 symmetry adapted basis functions of B1  symmetry.
 There are    17 symmetry adapted basis functions of B2  symmetry.
    64 basis functions,   108 primitive gaussians,    68 cartesian basis functions
     8 alpha electrons        8 beta electrons
       nuclear repulsion energy        30.9007927971 Hartrees.
 NAtoms=    4 NActive=    4 NUniq=    3 SFac= 1.78D+00 NAtFMM=   60 NAOKFM=F Big=F
 Integral buffers will be    131072 words long.
 Raffenetti 1 integral format.
 Two-electron integral symmetry is turned on.
 One-electron integrals computed using PRISM.
 NBasis=    64 RedAO= T EigKep=  7.97D-04  NBF=    29     6    12    17
 NBsUse=    64 1.00D-06 EigRej= -1.00D+00 NBFU=    29     6    12    17
 Initial guess from the checkpoint file:  "OCHH_freq_16.chk"
 B after Tr=     0.000000    0.000000   -0.000000
         Rot=    1.000000   -0.000000    0.000000   -0.000000 Ang=   0.00 deg.
 Initial guess orbital symmetries:
       Occupied  (A1) (A1) (A1) (A1) (B2) (A1) (B1) (B2)
       Virtual   (A1) (B2) (B1) (A1) (B1) (B2) (A1) (A1) (A1) (B2)
                 (B1) (A1) (A2) (B2) (A1) (B1) (B2) (A1) (B2) (A1)
                 (A2) (B1) (A1) (B2) (A1) (B1) (A1) (B2) (A1) (A2)
                 (B2) (B1) (A1) (A1) (A2) (B2) (B1) (A1) (B2) (B1)
                 (A1) (B2) (A1) (B1) (A1) (A2) (B2) (A1) (A1) (B2)
                 (A1) (A2) (A1) (B1) (B2) (A1)
 Keep R1 ints in memory in symmetry-blocked form, NReq=7997789.
 Requested convergence on RMS density matrix=1.00D-08 within 128 cycles.
 Requested convergence on MAX density matrix=1.00D-06.
 Requested convergence on             energy=1.00D-06.
 No special actions if energy rises.
 SCF Done:  E(RHF) =  -113.883148442     A.U. after    5 cycles
            NFock=  5  Conv=0.45D-08     -V/T= 2.0027
 ExpMin= 2.97D-02 ExpMax= 1.17D+04 ExpMxC= 4.01D+02 IAcc=3 IRadAn=         5 AccDes= 0.00D+00
 HarFok:  IExCor=  205 AccDes= 0.00D+00 IRadAn=         5 IDoV=-2 UseB2=F ITyADJ=14
 ICtDFT= 12500011 ScaDFX=  1.000000  1.000000  1.000000  1.000000
 Range of M.O.s used for correlation:     3    64
 NBasis=    64 NAE=     8 NBE=     8 NFC=     2 NFV=     0
 NROrb=     62 NOA=     6 NOB=     6 NVA=    56 NVB=    56

 **** Warning!!: The largest alpha MO coefficient is  0.11314628D+02

 Fully direct method using O(ONN) memory.
 JobTyp=1 Pass  1:  I=   3 to   8 NPSUse= 10 ParTrn=T ParDer=T DoDerP=T.
 Spin components of T(2) and E(2):
     alpha-alpha T2 =       0.1334917259D-01 E2=     -0.4186512060D-01
     alpha-beta  T2 =       0.8085057549D-01 E2=     -0.2519986644D+00
     beta-beta   T2 =       0.1334917259D-01 E2=     -0.4186512060D-01
 ANorm=    0.1052401502D+01
 E2 =    -0.3357289056D+00 EUMP2 =    -0.11421887734756D+03
          IDoAtm=1111
          Differentiating once with respect to electric field.
                with respect to dipole field.
          Differentiating once with respect to nuclear coordinates.
 Keep R1 ints in memory in symmetry-blocked form, NReq=7999015.
          There are     1 degrees of freedom in the 1st order CPHF.  IDoFFX=0 NUNeed=     1.
 LinEq1:  Iter=  0 NonCon=     1 RMS=8.48D-03 Max=7.92D-02 NDo=     1
 AX will form     1 AO Fock derivatives at one time.
 LinEq1:  Iter=  1 NonCon=     1 RMS=2.74D-03 Max=1.85D-02 NDo=     1
 LinEq1:  Iter=  2 NonCon=     1 RMS=8.12D-04 Max=6.71D-03 NDo=     1
 LinEq1:  Iter=  3 NonCon=     1 RMS=2.33D-04 Max=1.81D-03 NDo=     1
 LinEq1:  Iter=  4 NonCon=     1 RMS=5.91D-05 Max=4.18D-04 NDo=     1
 LinEq1:  Iter=  5 NonCon=     1 RMS=1.39D-05 Max=1.03D-04 NDo=     1
 LinEq1:  Iter=  6 NonCon=     1 RMS=2.83D-06 Max=2.09D-05 NDo=     1
 LinEq1:  Iter=  7 NonCon=     1 RMS=3.99D-07 Max=2.83D-06 NDo=     1
 LinEq1:  Iter=  8 NonCon=     1 RMS=4.31D-08 Max=2.17D-07 NDo=     1
 LinEq1:  Iter=  9 NonCon=     1 RMS=4.67D-09 Max=3.13D-08 NDo=     1
 LinEq1:  Iter= 10 NonCon=     1 RMS=4.16D-10 Max=2.24D-09 NDo=     1
 LinEq1:  Iter= 11 NonCon=     0 RMS=3.48D-11 Max=1.67D-10 NDo=     1
 Linear equations converged to 1.000D-10 1.000D-09 after    11 iterations.
 End of Minotr F.D. properties file   721 does not exist.
 End of Minotr F.D. properties file   722 does not exist.
 End of Minotr F.D. properties file   788 does not exist.
 Calling FoFJK, ICntrl=  10002127 FMM=F ISym2X=1 I1Cent= 0 IOpClX= 0 NMat=1 NMatS=1 NMatT=0.
 ***** Axes restored to original set *****
 -------------------------------------------------------------------
 Center     Atomic                   Forces (Hartrees/Bohr)
 Number     Number              X              Y              Z
 -------------------------------------------------------------------
      1        8           0.000000000   -0.000000000    0.000001999
      2        6          -0.000000000   -0.000000000    0.000001361
      3        1          -0.000002162    0.000000000   -0.000001680
      4        1           0.000002162    0.000000000   -0.000001680
 -------------------------------------------------------------------
 Cartesian Forces:  Max     0.000002162 RMS     0.000001318

 GradGradGradGradGradGradGradGradGradGradGradGradGradGradGradGradGradGrad
 Berny optimization.
 Using GEDIIS/GDIIS optimizer.
 FormGI is forming the generalized inverse of G from B-inverse, IUseBI=4.
 Internal  Forces:  Max     0.000002722 RMS     0.000001651
 Search for a local minimum.
 Step number   5 out of a maximum of   20
 All quantities printed in internal units (Hartrees-Bohrs-Radians)
 Mixed Optimization -- En-DIIS/RFO-DIIS
 Swapping is turned off.
 Update second derivatives using D2CorX and points    1    2    3    4    5
 DE=  5.99D-10 DEPred=-3.99D-09 R=-1.50D-01
 Trust test=-1.50D-01 RLast= 1.35D-04 DXMaxT set to 1.76D-01
 The second derivative matrix:
                          R1        R2        R3        A1        A2
           R1           0.81380
           R2           0.01586   0.35912
           R3           0.01586  -0.01318   0.35912
           A1           0.02426  -0.00756  -0.00756   0.15574
           A2           0.02426  -0.00756  -0.00756  -0.00426   0.15574
           A3          -0.04851   0.01512   0.01512   0.00852   0.00852
           D1          -0.00000  -0.00000  -0.00000   0.00000   0.00000
                          A3        D1
           A3           0.14297
           D1          -0.00000   0.00499
 ITU= -1  1  1  1  0
     Eigenvalues ---    0.00499   0.12571   0.16000   0.34865   0.37230
     Eigenvalues ---    0.81981
 En-DIIS/RFO-DIIS/Sim-DIIS IScMMF=       -3 using points:     5    4    3
 RFO step:  Lambda=-4.39500551D-11.
 DIIS inversion failure, remove point   3.
 DIIS inversion failure, remove point   2.
 Use linear search instead of GDIIS.
 RFO step:  Lambda= 0.00000000D+00 EMin= 4.99391781D-03
 Quartic linear search produced a step of -0.71914.
 Iteration  1 RMS(Cart)=  0.00006169 RMS(Int)=  0.00000000
 Iteration  2 RMS(Cart)=  0.00000000 RMS(Int)=  0.00000000
 ClnCor:  largest displacement from symmetrization is 2.73D-11 for atom     2.
 Variable       Old X    -DE/DX   Delta X   Delta X   Delta X     New X
                                 (Linear)    (Quad)   (Total)
    R1        2.31248  -0.00000   0.00004  -0.00004   0.00001   2.31249
    R2        2.10044  -0.00000   0.00005   0.00002   0.00007   2.10051
    R3        2.10044  -0.00000   0.00005   0.00002   0.00007   2.10051
    A1        2.12308  -0.00000   0.00002   0.00005   0.00007   2.12315
    A2        2.12308  -0.00000   0.00002   0.00005   0.00007   2.12315
    A3        2.03703   0.00000  -0.00004  -0.00010  -0.00014   2.03689
    D1        3.14159   0.00000   0.00000   0.00000   0.00000   3.14159
         Item               Value     Threshold  Converged?
 Maximum Force            0.000003     0.000002     NO 
 RMS     Force            0.000002     0.000001     NO 
 Maximum Displacement     0.000084     0.000006     NO 
 RMS     Displacement     0.000062     0.000004     NO 
 Predicted change in Energy=-3.656966D-09
 GradGradGradGradGradGradGradGradGradGradGradGradGradGradGradGradGradGrad

                          Input orientation:                          
 ---------------------------------------------------------------------
 Center     Atomic      Atomic             Coordinates (Angstroms)
 Number     Number       Type             X           Y           Z
 ---------------------------------------------------------------------
      1          8           0        0.000000   -0.000000   -0.026894
      2          6           0       -0.000000    0.000000    1.196822
      3          1           0        0.946247    0.000000    1.780036
      4          1           0       -0.946247   -0.000000    1.780036
 ---------------------------------------------------------------------
                    Distance matrix (angstroms):
                    1          2          3          4
     1  O    0.000000
     2  C    1.223716   0.000000
     3  H    2.039701   1.111541   0.000000
     4  H    2.039701   1.111541   1.892495   0.000000
 Stoichiometry    CH2O
 Framework group  C2V[C2(CO),SGV(H2)]
 Deg. of freedom     3
 Full point group                 C2V     NOp   4
 Largest Abelian subgroup         C2V     NOp   4
 Largest concise Abelian subgroup C2      NOp   2
                         Standard orientation:                         
 ---------------------------------------------------------------------
 Center     Atomic      Atomic             Coordinates (Angstroms)
 Number     Number       Type             X           Y           Z
 ---------------------------------------------------------------------
      1          8           0        0.000000   -0.000000    0.684760
      2          6           0       -0.000000    0.000000   -0.538956
      3          1           0        0.000000    0.946247   -1.122171
      4          1           0       -0.000000   -0.946247   -1.122171
 ---------------------------------------------------------------------
 Rotational constants (GHZ):         280.0223501          37.8301382          33.3276743
 Standard basis: Aug-CC-pVDZ (5D, 7F)
 There are    33 symmetry adapted cartesian basis functions of A1  symmetry.
 There are     6 symmetry adapted cartesian basis functions of A2  symmetry.
 There are    12 symmetry adapted cartesian basis functions of B1  symmetry.
 There are    17 symmetry adapted cartesian basis functions of B2  symmetry.
 There are    29 symmetry adapted basis functions of A1  symmetry.
 There are     6 symmetry adapted basis functions of A2  symmetry.
 There are    12 symmetry adapted basis functions of B1  symmetry.
 There are    17 symmetry adapted basis functions of B2  symmetry.
    64 basis functions,   108 primitive gaussians,    68 cartesian basis functions
     8 alpha electrons        8 beta electrons
       nuclear repulsion energy        30.9004077455 Hartrees.
 NAtoms=    4 NActive=    4 NUniq=    3 SFac= 1.78D+00 NAtFMM=   60 NAOKFM=F Big=F
 Integral buffers will be    131072 words long.
 Raffenetti 1 integral format.
 Two-electron integral symmetry is turned on.
 One-electron integrals computed using PRISM.
 NBasis=    64 RedAO= T EigKep=  7.97D-04  NBF=    29     6    12    17
 NBsUse=    64 1.00D-06 EigRej= -1.00D+00 NBFU=    29     6    12    17
 Lowest energy guess from the checkpoint file:  "OCHH_freq_16.chk"
 B after Tr=     0.000000   -0.000000   -0.000000
         Rot=    1.000000    0.000000    0.000000    0.000000 Ang=   0.00 deg.
 B after Tr=     0.000000    0.000000   -0.000000
         Rot=    1.000000   -0.000000    0.000000    0.000000 Ang=   0.00 deg.
 Initial guess orbital symmetries:
       Occupied  (A1) (B2) (B1) (A1) (A1) (B2) (A1) (A1)
       Virtual   (A1) (B2) (B1) (A1) (A1) (B2) (A1) (A1) (B2) (B2)
                 (B2) (B2) (A2) (B2) (B2) (B2) (B2) (B2) (B2) (B2)
                 (A2) (B2) (B2) (B2) (B2) (B2) (B2) (B2) (B2) (A2)
                 (B2) (B2) (B2) (B2) (A2) (B2) (B2) (B2) (B2) (B2)
                 (B2) (B2) (B2) (B2) (B2) (A2) (B2) (B2) (B2) (B2)
                 (B2) (A2) (B2) (B2) (B2) (B2)
 Keep R1 ints in memory in symmetry-blocked form, NReq=7997789.
 Requested convergence on RMS density matrix=1.00D-08 within 128 cycles.
 Requested convergence on MAX density matrix=1.00D-06.
 Requested convergence on             energy=1.00D-06.
 No special actions if energy rises.
 An orbital has undefined symmetry, so N**3 symmetry is turned off.
 SCF Done:  E(RHF) =  -113.883146253     A.U. after    6 cycles
            NFock=  6  Conv=0.27D-08     -V/T= 2.0027
 ExpMin= 2.97D-02 ExpMax= 1.17D+04 ExpMxC= 4.01D+02 IAcc=3 IRadAn=         5 AccDes= 0.00D+00
 HarFok:  IExCor=  205 AccDes= 0.00D+00 IRadAn=         5 IDoV=-2 UseB2=F ITyADJ=14
 ICtDFT= 12500011 ScaDFX=  1.000000  1.000000  1.000000  1.000000
 Range of M.O.s used for correlation:     3    64
 NBasis=    64 NAE=     8 NBE=     8 NFC=     2 NFV=     0
 NROrb=     62 NOA=     6 NOB=     6 NVA=    56 NVB=    56

 **** Warning!!: The largest alpha MO coefficient is  0.11313955D+02

 Fully direct method using O(ONN) memory.
 JobTyp=1 Pass  1:  I=   3 to   6 NPSUse= 10 ParTrn=T ParDer=T DoDerP=T.
 JobTyp=1 Pass  2:  I=   7 to   8 NPSUse= 10 ParTrn=T ParDer=T DoDerP=T.
 Spin components of T(2) and E(2):
     alpha-alpha T2 =       0.1334939269D-01 E2=     -0.4186535772D-01
     alpha-beta  T2 =       0.8085212446D-01 E2=     -0.2520003807D+00
     beta-beta   T2 =       0.1334939269D-01 E2=     -0.4186535772D-01
 ANorm=    0.1052402447D+01
 E2 =    -0.3357310961D+00 EUMP2 =    -0.11421887734905D+03
          IDoAtm=1111
          Differentiating once with respect to electric field.
                with respect to dipole field.
          Differentiating once with respect to nuclear coordinates.
 Keep R1 ints in memory in symmetry-blocked form, NReq=7999015.
          There are     1 degrees of freedom in the 1st order CPHF.  IDoFFX=0 NUNeed=     1.
 LinEq1:  Iter=  0 NonCon=     1 RMS=8.48D-03 Max=7.92D-02 NDo=     1
 AX will form     1 AO Fock derivatives at one time.
 LinEq1:  Iter=  1 NonCon=     1 RMS=2.74D-03 Max=1.85D-02 NDo=     1
 LinEq1:  Iter=  2 NonCon=     1 RMS=8.12D-04 Max=6.71D-03 NDo=     1
 LinEq1:  Iter=  3 NonCon=     1 RMS=2.33D-04 Max=1.81D-03 NDo=     1
 LinEq1:  Iter=  4 NonCon=     1 RMS=5.91D-05 Max=4.18D-04 NDo=     1
 LinEq1:  Iter=  5 NonCon=     1 RMS=1.39D-05 Max=1.03D-04 NDo=     1
 LinEq1:  Iter=  6 NonCon=     1 RMS=2.83D-06 Max=2.09D-05 NDo=     1
 LinEq1:  Iter=  7 NonCon=     1 RMS=3.99D-07 Max=2.83D-06 NDo=     1
 LinEq1:  Iter=  8 NonCon=     1 RMS=4.31D-08 Max=2.17D-07 NDo=     1
 LinEq1:  Iter=  9 NonCon=     1 RMS=4.67D-09 Max=3.13D-08 NDo=     1
 LinEq1:  Iter= 10 NonCon=     1 RMS=4.16D-10 Max=2.24D-09 NDo=     1
 LinEq1:  Iter= 11 NonCon=     0 RMS=3.48D-11 Max=1.67D-10 NDo=     1
 Linear equations converged to 1.000D-10 1.000D-09 after    11 iterations.
 End of Minotr F.D. properties file   721 does not exist.
 End of Minotr F.D. properties file   722 does not exist.
 End of Minotr F.D. properties file   788 does not exist.
 Calling FoFJK, ICntrl=  10002127 FMM=F ISym2X=1 I1Cent= 0 IOpClX= 0 NMat=1 NMatS=1 NMatT=0.
 ***** Axes restored to original set *****
 -------------------------------------------------------------------
 Center     Atomic                   Forces (Hartrees/Bohr)
 Number     Number              X              Y              Z
 -------------------------------------------------------------------
      1        8           0.000000000    0.000000000    0.000018816
      2        6           0.000000000   -0.000000000    0.000026546
      3        1          -0.000013678    0.000000000   -0.000022681
      4        1           0.000013678   -0.000000000   -0.000022681
 -------------------------------------------------------------------
 Cartesian Forces:  Max     0.000026546 RMS     0.000014323

 GradGradGradGradGradGradGradGradGradGradGradGradGradGradGradGradGradGrad
 Berny optimization.
 Using GEDIIS/GDIIS optimizer.
 FormGI is forming the generalized inverse of G from B-inverse, IUseBI=4.
 Internal  Forces:  Max     0.000023544 RMS     0.000016456
 Search for a local minimum.
 Step number   6 out of a maximum of   20
 All quantities printed in internal units (Hartrees-Bohrs-Radians)
 Mixed Optimization -- En-DIIS/RFO-DIIS
 Swapping is turned off.
 Update second derivatives using D2CorX and points    1    2    3    4    5
                                                      6
 DE= -1.49D-09 DEPred=-3.66D-09 R= 4.08D-01
 Trust test= 4.08D-01 RLast= 1.94D-04 DXMaxT set to 1.76D-01
 The second derivative matrix:
                          R1        R2        R3        A1        A2
           R1           0.81482
           R2           0.01545   0.36040
           R3           0.01545  -0.01190   0.36040
           A1           0.02425  -0.00792  -0.00792   0.15582
           A2           0.02425  -0.00792  -0.00792  -0.00418   0.15582
           A3          -0.04849   0.01585   0.01585   0.00835   0.00835
           D1           0.00000  -0.00000  -0.00000  -0.00000  -0.00000
                          A3        D1
           A3           0.14330
           D1           0.00000   0.00499
 ITU=  0 -1  1  1  1  0
     Eigenvalues ---    0.00499   0.12594   0.16000   0.35156   0.37230
     Eigenvalues ---    0.82076
 En-DIIS/RFO-DIIS/Sim-DIIS IScMMF=       -3 using points:     6    5    4    3
 RFO step:  Lambda=-5.91990729D-09.
 DIIS inversion failure, remove point   4.
 DIIS inversion failure, remove point   3.
 DIIS inversion failure, remove point   2.
 Use linear search instead of GDIIS.
 RFO step:  Lambda= 0.00000000D+00 EMin= 4.99391781D-03
 Quartic linear search produced a step of -0.22588.
 Iteration  1 RMS(Cart)=  0.00002376 RMS(Int)=  0.00000000
 Iteration  2 RMS(Cart)=  0.00000000 RMS(Int)=  0.00000000
 ClnCor:  largest displacement from symmetrization is 1.67D-12 for atom     2.
 Variable       Old X    -DE/DX   Delta X   Delta X   Delta X     New X
                                 (Linear)    (Quad)   (Total)
    R1        2.31249  -0.00002  -0.00000  -0.00002  -0.00002   2.31247
    R2        2.10051  -0.00002  -0.00002  -0.00002  -0.00004   2.10047
    R3        2.10051  -0.00002  -0.00002  -0.00002  -0.00004   2.10047
    A1        2.12315  -0.00001  -0.00002   0.00003   0.00001   2.12316
    A2        2.12315  -0.00001  -0.00002   0.00003   0.00001   2.12316
    A3        2.03689   0.00002   0.00003  -0.00005  -0.00002   2.03687
    D1        3.14159   0.00000   0.00000   0.00000   0.00000   3.14159
         Item               Value     Threshold  Converged?
 Maximum Force            0.000024     0.000002     NO 
 RMS     Force            0.000016     0.000001     NO 
 Maximum Displacement     0.000042     0.000006     NO 
 RMS     Displacement     0.000024     0.000004     NO 
 Predicted change in Energy=-9.284089D-10
 GradGradGradGradGradGradGradGradGradGradGradGradGradGradGradGradGradGrad

                          Input orientation:                          
 ---------------------------------------------------------------------
 Center     Atomic      Atomic             Coordinates (Angstroms)
 Number     Number       Type             X           Y           Z
 ---------------------------------------------------------------------
      1          8           0        0.000000   -0.000000   -0.026885
      2          6           0       -0.000000    0.000000    1.196819
      3          1           0        0.946225    0.000000    1.780033
      4          1           0       -0.946225   -0.000000    1.780033
 ---------------------------------------------------------------------
                    Distance matrix (angstroms):
                    1          2          3          4
     1  O    0.000000
     2  C    1.223704   0.000000
     3  H    2.039679   1.111521   0.000000
     4  H    2.039679   1.111521   1.892450   0.000000
 Stoichiometry    CH2O
 Framework group  C2V[C2(CO),SGV(H2)]
 Deg. of freedom     3
 Full point group                 C2V     NOp   4
 Largest Abelian subgroup         C2V     NOp   4
 Largest concise Abelian subgroup C2      NOp   2
                         Standard orientation:                         
 ---------------------------------------------------------------------
 Center     Atomic      Atomic             Coordinates (Angstroms)
 Number     Number       Type             X           Y           Z
 ---------------------------------------------------------------------
      1          8           0        0.000000   -0.000000    0.684754
      2          6           0       -0.000000    0.000000   -0.538950
      3          1           0       -0.000000    0.946225   -1.122164
      4          1           0       -0.000000   -0.946225   -1.122164
 ---------------------------------------------------------------------
 Rotational constants (GHZ):         280.0354908          37.8308097          33.3283816
 Standard basis: Aug-CC-pVDZ (5D, 7F)
 There are    33 symmetry adapted cartesian basis functions of A1  symmetry.
 There are     6 symmetry adapted cartesian basis functions of A2  symmetry.
 There are    12 symmetry adapted cartesian basis functions of B1  symmetry.
 There are    17 symmetry adapted cartesian basis functions of B2  symmetry.
 There are    29 symmetry adapted basis functions of A1  symmetry.
 There are     6 symmetry adapted basis functions of A2  symmetry.
 There are    12 symmetry adapted basis functions of B1  symmetry.
 There are    17 symmetry adapted basis functions of B2  symmetry.
    64 basis functions,   108 primitive gaussians,    68 cartesian basis functions
     8 alpha electrons        8 beta electrons
       nuclear repulsion energy        30.9007600318 Hartrees.
 NAtoms=    4 NActive=    4 NUniq=    3 SFac= 1.78D+00 NAtFMM=   60 NAOKFM=F Big=F
 Integral buffers will be    131072 words long.
 Raffenetti 1 integral format.
 Two-electron integral symmetry is turned on.
 One-electron integrals computed using PRISM.
 NBasis=    64 RedAO= T EigKep=  7.97D-04  NBF=    29     6    12    17
 NBsUse=    64 1.00D-06 EigRej= -1.00D+00 NBFU=    29     6    12    17
 Initial guess from the checkpoint file:  "OCHH_freq_16.chk"
 B after Tr=     0.000000    0.000000    0.000000
         Rot=    1.000000    0.000000    0.000000   -0.000000 Ang=   0.00 deg.
 Initial guess orbital symmetries:
       Occupied  (A1) (A1) (A1) (A1) (B2) (A1) (B1) (B2)
       Virtual   (A1) (B2) (B1) (A1) (B1) (B2) (A1) (A1) (A1) (B2)
                 (B1) (A1) (A2) (B2) (A1) (B1) (B2) (A1) (B2) (A1)
                 (A2) (B1) (A1) (B2) (A1) (B1) (A1) (B2) (A1) (A2)
                 (B2) (B1) (A1) (A1) (A2) (B2) (B1) (A1) (B2) (B1)
                 (A1) (B2) (A1) (B1) (A1) (A2) (B2) (A1) (A1) (B2)
                 (A1) (A2) (A1) (B1) (B2) (A1)
 Keep R1 ints in memory in symmetry-blocked form, NReq=7997789.
 Requested convergence on RMS density matrix=1.00D-08 within 128 cycles.
 Requested convergence on MAX density matrix=1.00D-06.
 Requested convergence on             energy=1.00D-06.
 No special actions if energy rises.
 SCF Done:  E(RHF) =  -113.883148527     A.U. after    4 cycles
            NFock=  4  Conv=0.57D-08     -V/T= 2.0027
 ExpMin= 2.97D-02 ExpMax= 1.17D+04 ExpMxC= 4.01D+02 IAcc=3 IRadAn=         5 AccDes= 0.00D+00
 HarFok:  IExCor=  205 AccDes= 0.00D+00 IRadAn=         5 IDoV=-2 UseB2=F ITyADJ=14
 ICtDFT= 12500011 ScaDFX=  1.000000  1.000000  1.000000  1.000000
 Range of M.O.s used for correlation:     3    64
 NBasis=    64 NAE=     8 NBE=     8 NFC=     2 NFV=     0
 NROrb=     62 NOA=     6 NOB=     6 NVA=    56 NVB=    56

 **** Warning!!: The largest alpha MO coefficient is  0.11314220D+02

 Fully direct method using O(ONN) memory.
 JobTyp=1 Pass  1:  I=   3 to   8 NPSUse= 10 ParTrn=T ParDer=T DoDerP=T.
 Spin components of T(2) and E(2):
     alpha-alpha T2 =       0.1334914863D-01 E2=     -0.4186508140D-01
     alpha-beta  T2 =       0.8085052197D-01 E2=     -0.2519986528D+00
     beta-beta   T2 =       0.1334914863D-01 E2=     -0.4186508140D-01
 ANorm=    0.1052401453D+01
 E2 =    -0.3357288156D+00 EUMP2 =    -0.11421887734227D+03
          IDoAtm=1111
          Differentiating once with respect to electric field.
                with respect to dipole field.
          Differentiating once with respect to nuclear coordinates.
 Keep R1 ints in memory in symmetry-blocked form, NReq=7999015.
          There are     1 degrees of freedom in the 1st order CPHF.  IDoFFX=0 NUNeed=     1.
 LinEq1:  Iter=  0 NonCon=     1 RMS=8.48D-03 Max=7.92D-02 NDo=     1
 AX will form     1 AO Fock derivatives at one time.
 LinEq1:  Iter=  1 NonCon=     1 RMS=2.74D-03 Max=1.85D-02 NDo=     1
 LinEq1:  Iter=  2 NonCon=     1 RMS=8.12D-04 Max=6.71D-03 NDo=     1
 LinEq1:  Iter=  3 NonCon=     1 RMS=2.33D-04 Max=1.81D-03 NDo=     1
[...]
      2(2)                  3454.164   3372.325                      5.87588226
      3(2)                  3054.081   2988.818                      9.41625527
      4(2)                  2376.227   2327.689                      0.44735274
      5(2)                  6123.406   5719.566                      1.43014662
      6(2)                  2504.327   2459.706                      0.18520120

 Combination Bands
 -----------------
   Mode(n)     Mode(n)      E(harm)   E(anharm)                      I(anharm)
      2(1)        1(1)      4704.724   4510.827                      1.81531544
      3(1)        1(1)      4504.683   4278.879                      0.02685565
      3(1)        2(1)      3254.123   3181.712                      0.24603406
      4(1)        1(1)      4165.755   3978.490                      0.00590142
      4(1)        2(1)      2915.195   2854.881                      0.48303496
      4(1)        3(1)      2715.154   2657.747                      0.00082108
      5(1)        1(1)      6039.345   5586.325                      0.64269520
      5(1)        2(1)      4788.785   4589.236                      5.04313297
      5(1)        3(1)      4588.744   4374.934                      0.43135703
      5(1)        4(1)      4249.816   4043.501                      0.00000000
      6(1)        1(1)      4229.806   4043.313                      0.30060483
      6(1)        2(1)      2979.245   2967.791                     45.16456702
      6(1)        3(1)      2779.204   2710.479                      1.58748607
      6(1)        4(1)      2440.277   2404.870                      0.00000000
      6(1)        5(1)      4313.866   4114.731                      0.16120872

 Units: Transition energies (E) in cm^-1
        Dipole strengths (DS) in 10^-40 esu^2.cm^2

 Fundamental Bands
 -----------------
   Mode(n)                  E(harm)   E(anharm)       DS(harm)      DS(anharm)
      1(1)                  2977.642   2820.579     92.84326335     91.26126699
      2(1)                  1727.082   1695.220    147.35452959    154.09523692
      3(1)                  1527.041   1493.165     29.05522929     25.06507302
      4(1)                  1188.113   1166.727     23.57139307     23.94591605
      5(1)                  3061.703   2849.498    124.09965352     92.50957956
      6(1)                  1252.163   1231.386     30.88023492     32.92761118

 Overtones
 ---------
   Mode(n)                  E(harm)   E(anharm)                     DS(anharm)
      1(2)                  5955.284   5578.244                      0.00379448
      2(2)                  3454.164   3372.325                      6.95106025
      3(2)                  3054.081   2988.818                     12.56857985
      4(2)                  2376.227   2327.689                      0.76671241
      5(2)                  6123.406   5719.566                      0.99752759
      6(2)                  2504.327   2459.706                      0.30037789

 Combination Bands
 -----------------
   Mode(n)     Mode(n)      E(harm)   E(anharm)                     DS(anharm)
      2(1)        1(1)      4704.724   4510.827                      1.60547406
      3(1)        1(1)      4504.683   4278.879                      0.02503877
      3(1)        2(1)      3254.123   3181.712                      0.30849046
      4(1)        1(1)      4165.755   3978.490                      0.00591760
      4(1)        2(1)      2915.195   2854.881                      0.67499091
      4(1)        3(1)      2715.154   2657.747                      0.00123248
      5(1)        1(1)      6039.345   5586.325                      0.45897208
      5(1)        2(1)      4788.785   4589.236                      4.38396831
      5(1)        3(1)      4588.744   4374.934                      0.39334427
      5(1)        4(1)      4249.816   4043.501                      0.00000000
      6(1)        1(1)      4229.806   4043.313                      0.29659649
      6(1)        2(1)      2979.245   2967.791                     60.71163736
      6(1)        3(1)      2779.204   2710.479                      2.33652993
      6(1)        4(1)      2440.277   2404.870                      0.00000000
      6(1)        5(1)      4313.866   4114.731                      0.15629838


 GradGradGradGradGradGradGradGradGradGradGradGradGradGradGradGradGradGrad
 Berny optimization.
 Internal  Forces:  Max     0.000000027 RMS     0.000000014
 Search for a local minimum.
 Step number   1 out of a maximum of    2
 All quantities printed in internal units (Hartrees-Bohrs-Radians)
 Second derivative matrix not updated -- analytic derivatives used.
 The second derivative matrix:
                          R1        R2        R3        A1        A2
           R1           0.78932
           R2           0.03121   0.32325
           R3           0.03121   0.00380   0.32325
           A1           0.01941   0.00164  -0.01076   0.11491
           A2           0.01941  -0.01076   0.00164  -0.07206   0.11491
           A3          -0.03881   0.00912   0.00912  -0.04285  -0.04285
           D1           0.00000   0.00000   0.00000  -0.00000  -0.00000
                          A3        D1
           A3           0.08570
           D1           0.00000   0.06794
 ITU=  0
     Eigenvalues ---    0.06794   0.12336   0.18582   0.32060   0.32490
     Eigenvalues ---    0.79665
 Angle between quadratic step and forces=  90.00 degrees.
 Linear search not attempted -- first point.
 Iteration  1 RMS(Cart)=  0.00000007 RMS(Int)=  0.00000000
 ClnCor:  largest displacement from symmetrization is 2.12D-15 for atom     2.
 Variable       Old X    -DE/DX   Delta X   Delta X   Delta X     New X
                                 (Linear)    (Quad)   (Total)
    R1        2.31248  -0.00000   0.00000  -0.00000  -0.00000   2.31248
    R2        2.10043   0.00000   0.00000   0.00000   0.00000   2.10043
    R3        2.10043   0.00000   0.00000   0.00000   0.00000   2.10043
    A1        2.12308  -0.00000   0.00000  -0.00000  -0.00000   2.12308
    A2        2.12308  -0.00000   0.00000  -0.00000  -0.00000   2.12308
    A3        2.03703   0.00000   0.00000   0.00000   0.00000   2.03703
    D1        3.14159   0.00000   0.00000   0.00000   0.00000   3.14159
         Item               Value     Threshold  Converged?
 Maximum Force            0.000000     0.000002     YES
 RMS     Force            0.000000     0.000001     YES
 Maximum Displacement     0.000000     0.000006     YES
 RMS     Displacement     0.000000     0.000004     YES
 Predicted change in Energy=-2.530734D-15
 Optimization completed.
    -- Stationary point found.
                           ----------------------------
                           !   Optimized Parameters   !
                           ! (Angstroms and Degrees)  !
 --------------------------                            --------------------------
 ! Name  Definition              Value          Derivative Info.                !
 --------------------------------------------------------------------------------
 ! R1    R(1,2)                  1.2237         -DE/DX =    0.0                 !
 ! R2    R(2,3)                  1.1115         -DE/DX =    0.0                 !
 ! R3    R(2,4)                  1.1115         -DE/DX =    0.0                 !
 ! A1    A(1,2,3)              121.6433         -DE/DX =    0.0                 !
 ! A2    A(1,2,4)              121.6433         -DE/DX =    0.0                 !
 ! A3    A(3,2,4)              116.7133         -DE/DX =    0.0                 !
 ! D1    D(1,2,4,3)            180.0            -DE/DX =    0.0                 !
 --------------------------------------------------------------------------------
 GradGradGradGradGradGradGradGradGradGradGradGradGradGradGradGradGradGrad


 ----------------------------------------------------------------------

 Electric dipole moment (input orientation):
 (Debye = 10**-18 statcoulomb cm , SI units = C m)
                  (au)            (Debye)         (10**-30 SI)
   Tot        0.948736D+00      0.241145D+01      0.804372D+01
   x          0.000000D+00      0.000000D+00      0.000000D+00
   y          0.000000D+00      0.000000D+00      0.000000D+00
   z          0.948736D+00      0.241145D+01      0.804372D+01

 Dipole polarizability, Alpha (input orientation).
 (esu units = cm**3 , SI units = C**2 m**2 J**-1)
 Alpha(0;0):
               (au)            (10**-24 esu)      (10**-40 SI)
   iso        0.175831D+02      0.260554D+01      0.289906D+01
   aniso      0.857204D+01      0.127025D+01      0.141334D+01
   xx         0.175882D+02      0.260630D+01      0.289990D+01
   yx         0.000000D+00      0.000000D+00      0.000000D+00
   yy         0.126315D+02      0.187179D+01      0.208265D+01
   zx         0.000000D+00      0.000000D+00      0.000000D+00
   zy         0.000000D+00      0.000000D+00      0.000000D+00
   zz         0.225296D+02      0.333854D+01      0.371463D+01

 ----------------------------------------------------------------------

 Dipole orientation:
     8          0.00000000         -0.00000000         -0.05073372
     6          0.00000000         -0.00000000          2.26174667
     1          1.78816018          0.00000000          3.36369581
     1         -1.78816018         -0.00000000          3.36369581

 Electric dipole moment (dipole orientation):
 (Debye = 10**-18 statcoulomb cm , SI units = C m)
                  (au)            (Debye)         (10**-30 SI)
   Tot        0.948736D+00      0.241145D+01      0.804372D+01
   x          0.000000D+00      0.000000D+00      0.000000D+00
   y          0.000000D+00      0.000000D+00      0.000000D+00
   z          0.948736D+00      0.241145D+01      0.804372D+01

 Dipole polarizability, Alpha (dipole orientation).
 (esu units = cm**3 , SI units = C**2 m**2 J**-1)
 Alpha(0;0):
               (au)            (10**-24 esu)      (10**-40 SI)
   iso        0.175831D+02      0.260554D+01      0.289906D+01
   aniso      0.857204D+01      0.127025D+01      0.141334D+01
   xx         0.175882D+02      0.260630D+01      0.289990D+01
   yx         0.000000D+00      0.000000D+00      0.000000D+00
   yy         0.126315D+02      0.187179D+01      0.208265D+01
   zx         0.000000D+00      0.000000D+00      0.000000D+00
   zy         0.000000D+00      0.000000D+00      0.000000D+00
   zz         0.225296D+02      0.333854D+01      0.371463D+01

 ----------------------------------------------------------------------
 1\1\GINC-N2079\Freq\RMP2-FC\Aug-CC-pVDZ\C1H2O1\B3M2A1\11-Jun-2021\0\\#
 N Geom=AllCheck Guess=TCheck SCRF=Check GenChk RMP2(FC)/Aug-CC-pVDZ Fr
 eq\\Formaldahyde freq\\0,1\O,0.,0.,-0.0268471306\C,0.,0.,1.1968647946\
 H,0.9462536183,0.,1.779991168\H,-0.9462536183,0.,1.779991168\\Version=
 ES64L-G16RevB.01\State=1-A1\HF=-113.8831487\MP2=-114.2188774\RMSD=2.12
 0e-09\RMSF=1.075e-08\ZeroPoint=0.0267314\Thermal=0.0296014\Dipole=0.,0
 .,0.9487363\DipoleDeriv=-0.434253,0.,0.,0.,-0.3184786,0.,0.,0.,-0.7445
 177,0.7552776,0.,0.,0.,0.1258555,0.,0.,0.,0.8744832,-0.1605123,0.,-0.1
 440266,0.,0.0963115,0.,-0.0834063,0.,-0.0649827,-0.1605123,0.,0.144026
 6,0.,0.0963115,0.,0.0834063,0.,-0.0649827\Polar=17.5881562,0.,12.63146
 69,0.,0.,22.5296046\Quadrupole=0.1626313,0.1453594,-0.3079907,0.,0.,0.
 \PG=C02V [C2(C1O1),SGV(H2)]\NImag=0\\0.06992940,0.,0.01752968,0.,0.,0.
 78932020,-0.10118324,0.,0.,0.60826211,0.,-0.05431632,0.,0.,0.16830107,
 0.,0.,-0.70937683,0.,0.,0.91289414,0.01562692,0.,-0.01203038,-0.253539
 44,0.,-0.08914384,0.25531845,0.,0.01839332,0.,0.,-0.05699238,0.,0.,0.0
 1929953,-0.03558692,0.,-0.03997169,-0.09081705,0.,-0.10175866,0.113789
 10,0.,0.13282405,0.01562692,0.,0.01203038,-0.25353944,0.,0.08914384,-0
 .01740594,0.,0.01261487,0.25531845,0.,0.01839332,0.,0.,-0.05699238,0.,
 0.,0.01929953,0.,0.,0.01929953,0.03558692,0.,-0.03997169,0.09081705,0.
 ,-0.10175866,-0.01261487,0.,0.00890630,-0.11378910,0.,0.13282405\\0.,0
 .,-0.00000003,0.,0.,0.00000001,-0.00000001,0.,0.,0.00000001,0.,0.\\0.,
 0.,0.,0.,-0.01733592,0.,0.,0.,0.,0.,0.,0.,0.00388313,0.,0.,0.,0.030803
 35,0.,0.,0.07421930,0.,0.,-0.00458384,0.,0.,-0.05211171,0.,0.,0.001540
 29,0.,0.00672640,-0.08419932,0.,-0.05251132,0.06967730,0.,0.,-0.006733
 71,0.,0.,-0.03905121,0.,0.,0.04736574,0.,0.,0.00458384,0.,0.,0.0521117
 1,0.,0.,0.01298174,0.,0.,-0.00154029,0.,0.00672640,0.08419932,0.,-0.05
 251132,-0.01298174,0.,-0.00158081,-0.06967730,0.,0.,-0.00673371,0.,0.,
 -0.03905121,0.,0.,-0.00158081,0.,0.,0.04736574,0.,0.,0.,0.,-0.01999056
 ,0.,0.,0.,0.,0.00351986,0.,0.,0.,0.,0.,0.,-0.01749355,0.,0.,0.09303734
 ,0.,0.,0.00750893,0.,0.00823535,0.05139255,0.,-0.03777190,-0.05890148,
 0.,-0.01354922,0.,0.,0.01136250,0.,0.,0.00218672,0.01874205,0.,0.03146
 405,-0.04827860,0.,-0.07285116,0.03433986,0.,0.04138711,-0.00750893,0.
 ,0.00823535,-0.05139255,0.,-0.03777190,0.,0.,-0.00480331,0.05890148,0.
 ,0.01354922,0.,0.,-0.01136250,0.,0.,0.,0.,0.,-0.00218672,0.01874205,0.
 ,-0.03146405,-0.04827860,0.,0.07285116,-0.00480331,0.,0.,0.03433986,0.
 ,-0.04138711,0.02036523,0.,0.05606462,0.,0.,-0.36839635,-0.02632346,0.
 ,0.,-0.13121745,0.,-0.03892221,0.,0.,0.04406029,0.,0.,0.31808328,0.,0.
 ,-0.20827969,0.00297912,0.,0.01009970,0.07877045,0.,-0.01288258,-0.051
 16513,0.,-0.00857121,0.,0.,-0.00256904,0.,0.,-0.00210390,0.02146375,0.
 ,0.02515653,-0.03216926,0.,-0.05490179,0.00674419,0.,0.02780614,0.0029
 7912,0.,-0.01009970,0.07877045,0.,0.01288258,-0.03058444,0.,0.00396131
 ,-0.05116513,0.,-0.00857121,0.,0.,-0.00256904,0.,0.,0.01324414,0.,0.,-
 0.00210390,-0.02146375,0.,0.02515654,0.03216926,0.,-0.05490179,-0.0039
 6131,0.,0.00193912,-0.00674419,0.,0.02780614,0.08433370,0.,0.09818727,
 0.,0.,-0.97951882,-0.07208024,0.,0.,0.20787620,0.,-0.08624998,0.,0.,0.
 05745799,0.,0.,0.96236278,0.,0.,-1.01053398,-0.00612673,0.,0.01311798,
 -0.06789798,0.,-0.01338687,0.04874534,0.,-0.00596865,0.,0.,0.01439599,
 0.,0.,0.00206120,0.00808110,0.,0.00857802,-0.00641569,0.,0.02408560,-0
 .00069827,0.,-0.03152307,-0.00612673,0.,-0.01311798,-0.06789798,0.,0.0
 1338687,0.02527936,0.,-0.00096715,0.04874534,0.,-0.00596865,0.,0.,0.01
 439599,0.,0.,-0.01048855,0.,0.,0.00206120,-0.00808110,0.,0.00857802,0.
 00641569,0.,0.02408560,0.00096715,0.,-0.00114055,0.00069827,0.,-0.0315
 2307,-0.00400356,0.,-0.00008704,0.,0.,0.05795709,0.02657494,0.,0.,-1.0
 8364706,0.,0.01595031,0.,0.,0.11359788,0.,0.,-0.07314159,0.,0.,-0.2272
 5863,-0.01128569,0.,-0.01616673,0.52853606,0.,0.34672790,-0.53074075,0
 .,-0.00793163,0.,0.,-0.06477409,0.,0.,0.09326668,0.01265099,0.,0.00759
 225,0.34506543,0.,0.15020011,-0.34413879,0.,-0.14779980,-0.01128569,0.
 ,0.01616673,0.52853606,0.,-0.34672790,0.01349038,0.,-0.01357763,-0.530
 74075,0.,-0.00793163,0.,0.,-0.06477409,0.,0.,-0.02056096,0.,0.,0.09326
 668,-0.01265099,0.,0.00759225,-0.34506543,0.,0.15020011,0.01357763,0.,
 -0.00999256,0.34413879,0.,-0.14779980,0.,0.,0.,-0.04342510,0.,0.,0.,0.
 ,0.11031804,0.,0.,0.,0.,0.,0.,0.02558743,0.,0.,-0.87521213,0.,0.,-0.00
 936914,0.,-0.03344647,0.52623778,0.,0.42481235,-0.51686864,0.,-0.00646
 830,0.,0.,-0.09179525,0.,0.,0.09826354,0.00891884,0.,-0.00049533,0.382
 44705,0.,0.17059737,-0.37553455,0.,-0.17010204,0.00936914,0.,-0.033446
 47,-0.52623778,0.,0.42481235,0.,0.,-0.01583134,0.51686864,0.,0.0064683
 0,0.,0.,0.09179525,0.,0.,0.,0.,0.,-0.09826354,0.00891884,0.,0.00049533
 ,0.38244705,0.,-0.17059737,-0.01583134,0.,0.,-0.37553455,0.,0.17010204
 ,-0.01114624,0.,-0.00477244,0.,0.,-0.06876211,0.02221655,0.,0.,-0.5166
 8708,0.,0.03266659,0.,0.,0.06860483,0.,0.,0.08072162,0.,0.,-0.26169375
 ,-0.00553517,0.,-0.01548015,0.24723526,0.,0.15432592,-0.22452864,0.,-0
 .01394708,0.,0.,-0.05063571,0.,0.,0.07836977,0.00190844,0.,-0.00597975
 ,0.15826237,0.,0.09048606,-0.14950829,0.,-0.08127652,-0.00553516,0.,0.
 01548015,0.24723526,0.,-0.15432592,-0.01717146,0.,-0.01066252,-0.22452
 864,0.,-0.01394708,0.,0.,-0.05063572,0.,0.,-0.01378698,0.,0.,0.0783697
 8,-0.00190845,0.,-0.00597975,-0.15826237,0.,0.09048606,0.01066252,0.,-
 0.00322979,0.14950829,0.,-0.08127652,-0.00793130,0.,-0.02503684,0.0000
 0001,0.,-0.03012620,0.02845202,0.,0.,-0.40011373,0.,0.01923457,0.,0.,0
 .01167755,0.,0.,0.06478834,0.,0.,-0.14593408,-0.01026037,0.,-0.0292870
 1,0.18583085,0.,0.13844986,-0.18329984,0.,0.00290113,0.,0.,-0.01545607
 ,0.,0.,0.01656122,-0.00090436,0.,-0.01733109,0.12534125,0.,0.04057287,
 -0.11679987,0.,-0.01433416,-0.01026037,0.,0.02928700,0.18583085,0.,-0.
 13844985,0.00772936,0.,-0.00763702,-0.18329984,0.,0.00290113,0.,0.,-0.
 01545606,0.,0.,-0.00400629,0.,0.,0.01656122,0.00090435,0.,-0.01733107,
 -0.12534125,0.,0.04057287,0.00763702,0.,-0.00890762,0.11679988,0.,-0.0
 1433419,-0.02447998,0.,-0.04033853,0.,0.,0.13663105,0.05399815,0.,0.,-
 0.36646620,0.,0.03668059,0.,0.,-0.02877399,0.,0.,-0.12216910,-0.000000
 01,0.,-0.00520999,-0.01475909,0.,-0.02520778,0.15623403,0.,0.11138491,
 -0.12816978,0.,0.00182897,0.,0.,-0.00395331,0.,0.,0.00022694,-0.003623
 00,0.,-0.00723097,0.12531282,0.,0.06368954,-0.10393347,0.,-0.05522028,
 -0.01475909,0.,0.02520779,0.15623401,0.,-0.11138490,-0.01330516,0.,-0.
 01775635,-0.12816976,0.,0.00182897,0.,0.,-0.00395330,0.,0.,0.00189740,
 0.,0.,0.00022693,0.00362300,0.,-0.00723098,-0.12531280,0.,0.06368954,0
 .01775634,0.,-0.00123829,0.10393346,0.,-0.05522027,-0.17929907,0.,-0.1
 7758952,0.,0.,1.07519627,0.18633937,0.,0.,-0.31500944,0.,0.17636274,0.
 ,0.,-0.17579877,0.,0.,-1.05759473,0.00000001,0.,0.98180612,-0.00352015
 ,0.,-0.00968229,0.06433502,0.,0.05390304,-0.04789926,0.,0.00061340,0.,
 0.,-0.00028198,0.,0.,-0.00164834,-0.00038309,0.,-0.00880078,0.06442831
 ,0.,0.03789430,-0.05413298,0.,-0.03202293,-0.00352015,0.,0.00968228,0.
 06433504,0.,-0.05390306,-0.01291560,0.,-0.00991223,-0.04789929,0.,0.00
 061340,0.,0.,-0.00028200,0.,0.,0.00131692,0.,0.,-0.00164832,0.00038308
 ,0.,-0.00880076,-0.06442832,0.,0.03789430,0.00991223,0.,0.00292940,0.0
 5413302,0.,-0.03202295,-0.00569951,0.,0.00149702,0.00000001,0.,0.02561
 518,-0.00326552,0.,0.,1.96522981,0.,-0.00673620,0.,0.,-0.55346628,0.,0
 .,-0.04052004,0.,0.,0.41811733,0.00448250,0.,0.01652076,-0.98098217,0.
 ,-0.73573202,0.98524504,0.,0.00261959,0.,0.,0.28010123,0.,0.,-0.308091
 65,-0.00431729,0.,0.00745241,-0.74856104,0.,-0.18879865,0.73604479,0.,
 0.16464412,0.00448251,0.,-0.01652077,-0.98098214,0.,0.73573200,-0.0087
 4538,0.,0.01683354,0.98524501,0.,0.00261959,0.,0.,0.28010124,0.,0.,0.0
 2537083,0.,0.,-0.30809166,0.00431727,0.,0.00745243,0.74856103,0.,-0.18
 879865,-0.01683354,0.,0.01670212,-0.73604477,0.,0.16464409,0.01358736,
 0.,0.01983872,-0.00000001,0.,-0.07327116,-0.01637320,0.,0.,1.99107566,
 0.,-0.02481462,0.,0.,-0.65898874,0.,0.,0.07454135,0.00000002,0.,0.3945
 2779,0.00139292,0.,0.02629448,-0.98735124,0.,-0.88434180,0.97025898,0.
 ,0.00248795,0.,0.,0.34190168,0.,0.,-0.33920651,-0.00210957,0.,-0.00063
 509,-0.87628162,0.,-0.23453457,0.86821925,0.,0.25264528,0.00139291,0.,
 -0.02629446,-0.98735123,0.,0.88434178,0.01569934,0.,0.01017193,0.97025
 898,0.,0.00248795,0.,0.,0.34190167,0.,0.,-0.00518313,0.,0.,-0.33920650
 ,0.00210959,0.,-0.00063512,0.87628160,0.,-0.23453457,-0.01017193,0.,-0
 .01747563,-0.86821925,0.,0.25264532\\@


 THE VALUE OF PHILOSOPHY IS, IN FACT, TO BE SOUGHT LARGELY IN ITS
 VERY UNCERTAINTY.  THE MAN WHO HAS NO TINCTURE OF PHILOSOPHY GOES
 THROUGH LIFE IMPRISONED IN THE PREJUDICES DERIVED FROM COMMON SENSE,
 FROM THE HABITUAL BELIEFS OF HIS AGE OR HIS NATION, AND FROM
 CONVICTIONS WHICH HAVE GROWN UP IN HIS MIND WITHOUT THE CO-OPERATION
 OR CONSENT OF HIS DELIBERATE REASON.  TO SUCH A MAN THE WORLD TENDS
 TO BE DEFINITE, FINITE, OBVIOUS; COMMON OBJECTS ROUSE NO QUESTIONS,
 AND UNFAMILIAR POSSIBILITIES ARE CONTEMPTUOUSLY REJECTED.

                             -- BERTRAND RUSSELL
 Job cpu time:       0 days  0 hours 30 minutes 18.1 seconds.
 Elapsed time:       0 days  0 hours  1 minutes 23.1 seconds.
 File lengths (MBytes):  RWF=    155 Int=      0 D2E=      0 Chk=     44 Scr=      1
 Normal termination of Gaussian 16 at Fri Jun 11 09:15:33 2021.
