Formaldahyde freq                                                       
Freq      RMP2-FC                                                     Aug-CC-pVDZ         
Number of atoms                            I                4
Info1-9                                    I   N=           9
          26          26        1002           0           0         100
           6           2           1
Full Title                                 C   N=           2
Formaldahyde freq       
Route                                      C   N=           6
#MP2/aug-cc-pvdz #Density=current #Opt=VeryTight #Frequency=
Anharmonic  
Charge                                     I                0
Multiplicity                               I                1
Number of electrons                        I               16
Number of alpha electrons                  I                8
Number of beta electrons                   I                8
Number of basis functions                  I               64
Number of independent functions            I               64
Number of point charges in /Mol/           I                0
Number of translation vectors              I                0
Atomic numbers                             I   N=           4
           8           6           1           1
Nuclear charges                            R   N=           4
  8.00000000E+00  6.00000000E+00  1.00000000E+00  1.00000000E+00
Current cartesian coordinates              R   N=          12
  4.42644821E-32 -2.86211693E-30  1.29398384E+00 -4.66794429E-32  2.38749233E-30
 -1.01849655E+00 -6.82106051E-30  1.78816018E+00 -2.12044570E+00 -2.18986464E-16
 -1.78816018E+00 -2.12044570E+00
Number of symbols in /Mol/                 I                0
Force Field                                I                0
Atom Types                                 C   N=           4
                                                
Int Atom Types                             I   N=           4
           0           0           0           0
MM charges                                 R   N=           4
  0.00000000E+00  0.00000000E+00  0.00000000E+00  0.00000000E+00
Integer atomic weights                     I   N=           4
          16          12           1           1
Real atomic weights                        R   N=           4
  1.59949146E+01  1.20000000E+01  1.00782504E+00  1.00782504E+00
Atom fragment info                         I   N=           4
           0           0           0           0
Atom residue num                           I   N=           4
           0           0           0           0
Nuclear spins                              I   N=           4
           0           0           1           1
Nuclear ZEff                               R   N=           4
 -5.60000000E+00 -3.60000000E+00 -1.00000000E+00 -1.00000000E+00
Nuclear ZNuc                               R   N=           4
  8.00000000E+00  6.00000000E+00  1.00000000E+00  1.00000000E+00
Nuclear QMom                               R   N=           4
  0.00000000E+00  0.00000000E+00  0.00000000E+00  0.00000000E+00
Nuclear GFac                               R   N=           4
  0.00000000E+00  0.00000000E+00  2.79284600E+00  2.79284600E+00
MicOpt                                     I   N=           4
          -1          -1          -1          -1
Number of residues                         I                0
Number of secondary structures             I                0
Redundant internal dimensions              I   N=           4
           7           3           3           1
Redundant internal coordinate indices      I   N=          28
           1           2           0           0           2           3
           0           0           2           4           0           0
           1           2           3           0           1           2
           4           0           3           2           4           0
           1           2           4           3
Redundant internal coordinates             R   N=           7
  2.31248039E+00  2.10043061E+00  2.10043061E+00  2.12307690E+00  2.12307690E+00
  2.03703151E+00  3.14159265E+00
ZRed-IntVec                                I   N=           7
           0           0           0           0           0           0
           0
ZRed-FPVec                                 R   N=           7
  0.00000000E+00  0.00000000E+00  0.00000000E+00  0.00000000E+00  0.00000000E+00
  0.00000000E+00  0.00000000E+00
ZRed-Constraint1                           R   N=           7
  2.31248039E+00  2.10043061E+00  2.10043061E+00  2.12307690E+00  2.12307690E+00
  2.03703151E+00  3.14159265E+00
ZRed-Constraint2                           R   N=           7
  2.30546587E+00  2.02200695E+00  2.02200695E+00  2.09439510E+00  2.09439510E+00
  2.09439510E+00  3.14159265E+00
SymInf integers                            I   N=          26
           2           4           1           1           1          -1
          -1           1          -1           1           1           1
          -1           1           0           0           0           0
           0           0           0           0           0           0
           0           0
RotTr to input orientation                 R   N=          12
 -4.28538368E-15  1.00000000E+00 -2.36081188E-15  1.00000000E+00  4.28538368E-15
  4.88177123E-15  4.88177123E-15 -2.36081188E-15 -1.00000000E+00 -1.38777878E-17
 -1.85613869E-16  1.24325012E+00
Number of contracted shells                I               28
Number of primitive shells                 I               60
Pure/Cartesian d shells                    I                0
Pure/Cartesian f shells                    I                0
Highest angular momentum                   I                2
Largest degree of contraction              I                7
Shell types                                I   N=          28
           0           0           0           0           1           1
           1          -2          -2           0           0           0
           0           1           1           1          -2          -2
           0           0           0           1           1           0
           0           0           1           1
Number of primitives per shell             I   N=          28
           7           7           1           1           3           1
           1           1           1           7           7           1
           1           3           1           1           1           1
           3           1           1           1           1           3
           1           1           1           1
Shell to atom map                          I   N=          28
           1           1           1           1           1           1
           1           1           1           2           2           2
           2           2           2           2           2           2
           3           3           3           3           3           4
           4           4           4           4
Primitive exponents                        R   N=          60
  1.17200000E+04  1.75900000E+03  4.00800000E+02  1.13700000E+02  3.70300000E+01
  1.32700000E+01  5.02500000E+00  1.17200000E+04  4.00800000E+02  1.13700000E+02
  3.70300000E+01  1.32700000E+01  5.02500000E+00  1.01300000E+00  3.02300000E-01
  7.89600000E-02  1.77000000E+01  3.85400000E+00  1.04600000E+00  2.75300000E-01
  6.85600000E-02  1.18500000E+00  3.32000000E-01  6.66500000E+03  1.00000000E+03
  2.28000000E+02  6.47100000E+01  2.10600000E+01  7.49500000E+00  2.79700000E+00
  6.66500000E+03  2.28000000E+02  6.47100000E+01  2.10600000E+01  7.49500000E+00
  2.79700000E+00  5.21500000E-01  1.59600000E-01  4.69000000E-02  9.43900000E+00
  2.00200000E+00  5.45600000E-01  1.51700000E-01  4.04100000E-02  5.50000000E-01
  1.51000000E-01  1.30100000E+01  1.96200000E+00  4.44600000E-01  1.22000000E-01
  2.97400000E-02  7.27000000E-01  1.41000000E-01  1.30100000E+01  1.96200000E+00
  4.44600000E-01  1.22000000E-01  2.97400000E-02  7.27000000E-01  1.41000000E-01
Contraction coefficients                   R   N=          60
  7.11864434E-04  5.48520199E-03  2.79099296E-02  1.05133208E-01  2.84002490E-01
  4.51673946E-01  2.73208126E-01  7.69030046E-06  3.13484579E-04 -2.96614853E-03
 -1.08753543E-02 -1.20753817E-01 -1.06275264E-01  1.09597548E+00  1.00000000E+00
  1.00000000E+00  6.26791663E-02  3.33536566E-01  7.41239642E-01  1.00000000E+00
  1.00000000E+00  1.00000000E+00  1.00000000E+00  6.93516317E-04  5.34150243E-03
  2.71366714E-02  1.01992385E-01  2.75508636E-01  4.51086433E-01  2.87565745E-01
  7.73354740E-06  2.78072137E-04 -2.57875654E-03 -8.95087684E-03 -1.06058855E-01
 -1.31517686E-01  1.09948660E+00  1.00000000E+00  1.00000000E+00  5.69792516E-02
  3.13207212E-01  7.60376742E-01  1.00000000E+00  1.00000000E+00  1.00000000E+00
  1.00000000E+00  3.34987264E-02  2.34800801E-01  8.13682958E-01  1.00000000E+00
  1.00000000E+00  1.00000000E+00  1.00000000E+00  3.34987264E-02  2.34800801E-01
  8.13682958E-01  1.00000000E+00  1.00000000E+00  1.00000000E+00  1.00000000E+00
Coordinates of each shell                  R   N=          84
  4.42644821E-32 -2.07325602E-30  1.29398384E+00  4.42644821E-32 -2.07325602E-30
  1.29398384E+00  4.42644821E-32 -2.07325602E-30  1.29398384E+00  4.42644821E-32
 -2.07325602E-30  1.29398384E+00  4.42644821E-32 -2.07325602E-30  1.29398384E+00
  4.42644821E-32 -2.07325602E-30  1.29398384E+00  4.42644821E-32 -2.07325602E-30
  1.29398384E+00  4.42644821E-32 -2.07325602E-30  1.29398384E+00  4.42644821E-32
 -2.07325602E-30  1.29398384E+00 -4.66794429E-32  1.59863143E-30 -1.01849655E+00
 -4.66794429E-32  1.59863143E-30 -1.01849655E+00 -4.66794429E-32  1.59863143E-30
 -1.01849655E+00 -4.66794429E-32  1.59863143E-30 -1.01849655E+00 -4.66794429E-32
  1.59863143E-30 -1.01849655E+00 -4.66794429E-32  1.59863143E-30 -1.01849655E+00
 -4.66794429E-32  1.59863143E-30 -1.01849655E+00 -4.66794429E-32  1.59863143E-30
 -1.01849655E+00 -4.66794429E-32  1.59863143E-30 -1.01849655E+00 -3.66561688E-30
  1.78816018E+00 -2.12044570E+00 -3.66561688E-30  1.78816018E+00 -2.12044570E+00
 -3.66561688E-30  1.78816018E+00 -2.12044570E+00 -3.66561688E-30  1.78816018E+00
 -2.12044570E+00 -3.66561688E-30  1.78816018E+00 -2.12044570E+00 -2.18986464E-16
 -1.78816018E+00 -2.12044570E+00 -2.18986464E-16 -1.78816018E+00 -2.12044570E+00
 -2.18986464E-16 -1.78816018E+00 -2.12044570E+00 -2.18986464E-16 -1.78816018E+00
 -2.12044570E+00 -2.18986464E-16 -1.78816018E+00 -2.12044570E+00
Num ILSW                                   I              100
ILSW                                       I   N=         100
           0           0           0           1           2           0
           0           0           0           0           0          -1
           5           0           0           0           2           0
           0           0           1           0           1           0
           1           0           0           0           0           0
           0           0      100000           0          -1           0
           0           0           0           0           0           0
           0           0           0           1           1           0
           0 -2000000000           1           0           0           0
           0           0           4          52           0           0
           0           0           0           0           0           0
           0           0           0           0           4           1
           0           0           0           0           0           0
           0           0           0           0           0           0
           0           0           0           0           0           0
           0           0           0           0           0           0
           0           0           0           0
Num RLSW                                   I               52
RLSW                                       R   N=          52
  1.00000000E+00  1.00000000E+00  1.00000000E+00  1.00000000E+00  1.00000000E+00
  0.00000000E+00  0.00000000E+00  1.00000000E+00  0.00000000E+00  0.00000000E+00
  0.00000000E+00  0.00000000E+00  1.00000000E+00  0.00000000E+00  0.00000000E+00
  0.00000000E+00  0.00000000E+00  1.00000000E+00  0.00000000E+00  0.00000000E+00
  0.00000000E+00  0.00000000E+00  1.00000000E+00  0.00000000E+00  0.00000000E+00
  0.00000000E+00  0.00000000E+00  1.00000000E+00  0.00000000E+00  0.00000000E+00
  0.00000000E+00  0.00000000E+00  1.00000000E+00  0.00000000E+00  0.00000000E+00
  0.00000000E+00  0.00000000E+00  0.00000000E+00  1.00000000E+00  1.00000000E+00
  0.00000000E+00  1.00000000E+00  0.00000000E+00  0.00000000E+00  0.00000000E+00
  0.00000000E+00  0.00000000E+00  0.00000000E+00  0.00000000E+00  0.00000000E+00
  0.00000000E+00  0.00000000E+00
MxBond                                     I                3
NBond                                      I   N=           4
           1           3           1           1
IBond                                      I   N=          12
           2           0           0           1           3           4
           2           0           0           2           0           0
RBond                                      R   N=          12
  2.00000000E+00  0.00000000E+00  0.00000000E+00  2.00000000E+00  1.00000000E+00
  1.00000000E+00  1.00000000E+00  0.00000000E+00  0.00000000E+00  1.00000000E+00
  0.00000000E+00  0.00000000E+00
Virial Ratio                               R      2.002727039011806E+00
SCF Energy                                 R     -1.138831487318370E+02
MP2 Energy                                 R     -1.142188773526697E+02
Total Energy                               R     -1.142188773526697E+02
Post-SCF wavefunction norm                 R      1.488320299548765E+00
RMS Force                                  R      1.074717828594124E-08
RMS Density                                R      2.119813177616182E-09
NImag                                      I                0
Job Status                                 I                1
Nuclear derivative order                   I                3
External E-field                           R   N=          35
  0.00000000E+00  0.00000000E+00  0.00000000E+00  0.00000000E+00  0.00000000E+00
  0.00000000E+00  0.00000000E+00  0.00000000E+00  0.00000000E+00  0.00000000E+00
  0.00000000E+00  0.00000000E+00  0.00000000E+00  0.00000000E+00  0.00000000E+00
  0.00000000E+00  0.00000000E+00  0.00000000E+00  0.00000000E+00  0.00000000E+00
  0.00000000E+00  0.00000000E+00  0.00000000E+00  0.00000000E+00  0.00000000E+00
  0.00000000E+00  0.00000000E+00  0.00000000E+00  0.00000000E+00  0.00000000E+00
  0.00000000E+00  0.00000000E+00  0.00000000E+00  0.00000000E+00  0.00000000E+00
IOpCl                                      I                0
IROHF                                      I                0
Alpha Orbital Energies                     R   N=          64
 -2.05905161E+01 -1.13577067E+01 -1.40077581E+00 -8.72042227E-01 -6.89709440E-01
 -6.48791047E-01 -5.30710798E-01 -4.44238213E-01  3.25875175E-02  5.04866385E-02
  6.74404544E-02  8.95844633E-02  1.45230894E-01  1.55512653E-01  1.59773389E-01
  2.19571112E-01  2.55082252E-01  2.65671254E-01  2.67315291E-01  3.22333446E-01
  3.40845808E-01  3.53228889E-01  4.45325443E-01  4.50157308E-01  4.67076082E-01
  5.11642612E-01  5.50485214E-01  5.53736028E-01  5.94765267E-01  6.16035755E-01
  6.39698974E-01  6.79049054E-01  7.46968957E-01  8.42669481E-01  8.89065900E-01
  9.93811182E-01  1.05184378E+00  1.20814987E+00  1.21467173E+00  1.22636777E+00
  1.27311042E+00  1.41887311E+00  1.49231337E+00  1.49267703E+00  1.62348498E+00
  1.62537572E+00  1.80913366E+00  1.81592759E+00  1.93716526E+00  1.94777272E+00
  2.06658590E+00  2.13452155E+00  2.16784382E+00  2.21360580E+00  2.36958446E+00
  2.52855000E+00  2.64641519E+00  2.91624740E+00  3.27887732E+00  3.68707810E+00
  3.69666337E+00  3.73733589E+00  3.87450953E+00  4.02589263E+00
Alpha MO coefficients                      R   N=        4096
  9.97299384E-01  1.68039102E-02 -1.09910019E-02 -5.18516357E-03  0.00000000E+00
  0.00000000E+00 -1.81353396E-03  0.00000000E+00  0.00000000E+00  3.83958145E-03
  0.00000000E+00  0.00000000E+00  1.23331275E-03  2.38789316E-04  0.00000000E+00
  0.00000000E+00 -1.91408235E-04  0.00000000E+00 -7.44449384E-04  0.00000000E+00
  0.00000000E+00 -3.66780440E-05  0.00000000E+00  1.23976043E-04  6.51519595E-04
  6.55500734E-03  2.87719874E-03  0.00000000E+00  0.00000000E+00  4.31670701E-04
  0.00000000E+00  0.00000000E+00  5.52074935E-03  0.00000000E+00  0.00000000E+00
  2.15706721E-04 -4.76721363E-04  0.00000000E+00  0.00000000E+00 -3.35471437E-04
  0.00000000E+00  2.64137275E-03  0.00000000E+00  0.00000000E+00  6.81302177E-04
  0.00000000E+00 -2.73162142E-04  1.17272277E-03 -3.93719032E-04  0.00000000E+00
  1.71901343E-04 -3.09742502E-04  0.00000000E+00  2.41408579E-04  6.69346548E-04
 -2.73162142E-04  1.17272277E-03 -3.93719032E-04  0.00000000E+00 -1.71901343E-04
 -3.09742502E-04  0.00000000E+00 -2.41408579E-04  6.69346548E-04 -3.29460123E-04
  6.38302388E-04 -1.00206495E-03  1.95252299E-06  0.00000000E+00  0.00000000E+00
 -5.07910624E-04  0.00000000E+00  0.00000000E+00  1.93105589E-03  0.00000000E+00
  0.00000000E+00  1.08131291E-04  3.23150175E-04  0.00000000E+00  0.00000000E+00
  4.54191636E-05  0.00000000E+00 -1.26825382E-03  0.00000000E+00  0.00000000E+00
  8.83881694E-05  0.00000000E+00  9.97715408E-01  2.02563132E-02 -2.00552385E-02
 -5.80828945E-03  0.00000000E+00  0.00000000E+00  8.85264574E-04  0.00000000E+00
  0.00000000E+00  4.86063789E-03  0.00000000E+00  0.00000000E+00  8.74464297E-04
  7.83385902E-04  0.00000000E+00  0.00000000E+00 -6.21116901E-04  0.00000000E+00
 -8.99188773E-04  0.00000000E+00  0.00000000E+00  1.08270025E-03  0.00000000E+00
  2.75490657E-04  9.76588891E-03  1.07272939E-03  0.00000000E+00  3.12723815E-04
 -1.99835713E-04  0.00000000E+00 -2.90047811E-03  1.26079789E-03  2.75490657E-04
  9.76588891E-03  1.07272939E-03  0.00000000E+00 -3.12723815E-04 -1.99835713E-04
  0.00000000E+00  2.90047811E-03  1.26079789E-03 -1.96709802E-01  4.08082269E-01
  4.25699523E-01  3.18086222E-02  0.00000000E+00  0.00000000E+00 -1.31403314E-01
  0.00000000E+00  0.00000000E+00 -4.33587744E-02  0.00000000E+00  0.00000000E+00
  9.45934650E-04  1.72761522E-02  0.00000000E+00  0.00000000E+00 -1.85316885E-05
  0.00000000E+00 -5.84812260E-03  0.00000000E+00  0.00000000E+00 -6.72249645E-04
  0.00000000E+00 -1.04121910E-01  2.13023167E-01  7.61690584E-02 -7.45744626E-03
  0.00000000E+00  0.00000000E+00  1.82068182E-01  0.00000000E+00  0.00000000E+00
 -1.67273844E-02  0.00000000E+00  0.00000000E+00 -2.99322228E-03  3.99010197E-02
  0.00000000E+00  0.00000000E+00  8.44538571E-03  0.00000000E+00 -2.93438483E-02
  0.00000000E+00  0.00000000E+00 -5.24323734E-03  0.00000000E+00  3.93683094E-02
 -2.19695605E-02  1.24165446E-03  0.00000000E+00 -7.66782804E-03  9.35600076E-03
  0.00000000E+00 -6.63145512E-04 -1.21113749E-02  3.93683094E-02 -2.19695605E-02
  1.24165446E-03  0.00000000E+00  7.66782804E-03  9.35600076E-03  0.00000000E+00
  6.63145512E-04 -1.21113749E-02  8.59600953E-02 -1.92354690E-01 -2.67248310E-01
 -4.92208977E-02  0.00000000E+00  0.00000000E+00 -1.51300670E-01  0.00000000E+00
  0.00000000E+00 -9.43393132E-02  0.00000000E+00  0.00000000E+00  8.21611573E-03
  6.35516823E-03  0.00000000E+00  0.00000000E+00  1.29590101E-03  0.00000000E+00
  1.46748508E-02  0.00000000E+00  0.00000000E+00 -1.99389888E-03  0.00000000E+00
 -1.58182582E-01  3.40330710E-01  1.98663263E-01 -7.90891654E-03  0.00000000E+00
  0.00000000E+00 -1.69173070E-01  0.00000000E+00  0.00000000E+00 -4.32185656E-02
  0.00000000E+00  0.00000000E+00 -6.58970227E-04 -6.57974123E-03  0.00000000E+00
  0.00000000E+00 -9.11168474E-03  0.00000000E+00  3.89811990E-02  0.00000000E+00
  0.00000000E+00  3.02959253E-02  0.00000000E+00  2.39138804E-01  8.36477482E-02
  3.34677002E-03  0.00000000E+00 -2.46126042E-02  1.14070604E-02  0.00000000E+00
  3.38057816E-03  2.83987462E-02  2.39138804E-01  8.36477482E-02  3.34677002E-03
  0.00000000E+00  2.46126042E-02  1.14070604E-02  0.00000000E+00 -3.38057816E-03
  2.83987462E-02  0.00000000E+00  0.00000000E+00  0.00000000E+00  0.00000000E+00
  0.00000000E+00  3.32130247E-01  0.00000000E+00  0.00000000E+00  2.19845874E-01
  0.00000000E+00  0.00000000E+00  1.23422620E-02  0.00000000E+00  0.00000000E+00
  0.00000000E+00 -1.70074363E-02  0.00000000E+00  0.00000000E+00  0.00000000E+00
  0.00000000E+00 -1.94124790E-02  0.00000000E+00  0.00000000E+00  0.00000000E+00
  0.00000000E+00  0.00000000E+00  0.00000000E+00  0.00000000E+00  4.02226020E-01
  0.00000000E+00  0.00000000E+00  7.66636581E-03  0.00000000E+00  0.00000000E+00
 -1.39955211E-02  0.00000000E+00  0.00000000E+00  0.00000000E+00  1.79157997E-03
  0.00000000E+00  0.00000000E+00  0.00000000E+00  0.00000000E+00 -4.47182028E-03
  0.00000000E+00  0.00000000E+00  2.51736733E-01  2.05933996E-01  1.46381521E-02
  0.00000000E+00 -1.40796123E-02  1.16992284E-02  0.00000000E+00 -4.41098200E-02
  3.45654586E-02 -2.51736733E-01 -2.05933996E-01 -1.46381521E-02  0.00000000E+00
 -1.40796123E-02 -1.16992284E-02  0.00000000E+00 -4.41098200E-02 -3.45654586E-02
 -6.47805094E-02  1.46238643E-01  2.74735966E-01  1.16527552E-01  0.00000000E+00
  0.00000000E+00  4.98927097E-01  0.00000000E+00  0.00000000E+00  2.44866729E-01
  0.00000000E+00  0.00000000E+00  3.88264320E-03 -2.37974497E-02  0.00000000E+00
  0.00000000E+00 -7.18507751E-04  0.00000000E+00  5.54993092E-03  0.00000000E+00
  0.00000000E+00 -2.47442883E-03  0.00000000E+00  1.53118939E-02 -5.77138788E-02
 -7.55374580E-02 -5.41927686E-02  0.00000000E+00  0.00000000E+00 -3.90896520E-01
  0.00000000E+00  0.00000000E+00 -9.49539473E-02  0.00000000E+00  0.00000000E+00
 -6.26998486E-03 -3.74174586E-02  0.00000000E+00  0.00000000E+00 -9.96163067E-03
  0.00000000E+00  3.32875247E-02  0.00000000E+00  0.00000000E+00  1.64934188E-02
  0.00000000E+00  1.30621714E-01  8.50081882E-02  7.99823771E-03  0.00000000E+00
 -1.11224312E-02 -1.47455929E-03  0.00000000E+00 -4.47845726E-03  2.12413733E-02
  1.30621714E-01  8.50081882E-02  7.99823771E-03  0.00000000E+00  1.11224312E-02
 -1.47455929E-03  0.00000000E+00  4.47845726E-03  2.12413733E-02  0.00000000E+00
  0.00000000E+00  0.00000000E+00  0.00000000E+00  4.89444868E-01  0.00000000E+00
  0.00000000E+00  3.53818290E-01  0.00000000E+00  0.00000000E+00  4.87516995E-02
  0.00000000E+00  0.00000000E+00  0.00000000E+00 -2.46723121E-02  0.00000000E+00
  0.00000000E+00  0.00000000E+00  0.00000000E+00 -3.16628242E-02  0.00000000E+00
  0.00000000E+00  0.00000000E+00  0.00000000E+00  0.00000000E+00  0.00000000E+00
  0.00000000E+00  3.26501739E-01  0.00000000E+00  0.00000000E+00  1.74113859E-01
  0.00000000E+00  0.00000000E+00  3.59159768E-03  0.00000000E+00  0.00000000E+00
  0.00000000E+00  4.46065943E-02  0.00000000E+00  0.00000000E+00  0.00000000E+00
  0.00000000E+00 -9.78362899E-03  0.00000000E+00  0.00000000E+00  0.00000000E+00
  0.00000000E+00  0.00000000E+00  0.00000000E+00  1.01295363E-02  0.00000000E+00
  0.00000000E+00 -6.42185967E-03  0.00000000E+00  0.00000000E+00  0.00000000E+00
  0.00000000E+00  0.00000000E+00  1.01295363E-02  0.00000000E+00  0.00000000E+00
 -6.42185967E-03  0.00000000E+00  0.00000000E+00  0.00000000E+00  0.00000000E+00
  0.00000000E+00  0.00000000E+00  0.00000000E+00  5.45754258E-01  0.00000000E+00
  0.00000000E+00  4.05293371E-01  0.00000000E+00  0.00000000E+00  1.02115137E-01
  0.00000000E+00  0.00000000E+00  0.00000000E+00 -8.12016049E-03  0.00000000E+00
  0.00000000E+00  0.00000000E+00  0.00000000E+00 -8.87852540E-03  0.00000000E+00
  0.00000000E+00  0.00000000E+00  0.00000000E+00  0.00000000E+00  0.00000000E+00
  0.00000000E+00 -1.91565163E-01  0.00000000E+00  0.00000000E+00 -1.54491603E-01
  0.00000000E+00  0.00000000E+00 -6.15121190E-02  0.00000000E+00  0.00000000E+00
  0.00000000E+00  7.35097115E-02  0.00000000E+00  0.00000000E+00  0.00000000E+00
  0.00000000E+00  8.87972600E-03  0.00000000E+00  0.00000000E+00 -2.32768680E-01
 -9.04465767E-02  3.07015111E-02  0.00000000E+00  3.13735594E-03 -8.00115380E-03
  0.00000000E+00 -3.92510270E-03  2.41283371E-02  2.32768680E-01  9.04465767E-02
 -3.07015111E-02  0.00000000E+00  3.13735594E-03  8.00115380E-03  0.00000000E+00
 -3.92510270E-03 -2.41283371E-02 -1.87365181E-03  1.35562021E-02 -5.66732000E-02
 -8.49445305E-01  0.00000000E+00  0.00000000E+00  2.57591231E-02  0.00000000E+00
  0.00000000E+00  7.25291685E-02  0.00000000E+00  0.00000000E+00  2.92888523E-01
  6.23917878E-04  0.00000000E+00  0.00000000E+00 -2.14360631E-05  0.00000000E+00
 -8.77606431E-03  0.00000000E+00  0.00000000E+00  2.01972941E-03  0.00000000E+00
 -3.06937005E-02  3.59557320E-02  7.74066636E-01  3.52020310E+00  0.00000000E+00
  0.00000000E+00 -5.62609368E-02  0.00000000E+00  0.00000000E+00 -8.59831682E-02
  0.00000000E+00  0.00000000E+00 -1.49546977E-01  7.94873816E-04  0.00000000E+00
  0.00000000E+00  4.62799738E-04  0.00000000E+00  8.61235667E-02  0.00000000E+00
  0.00000000E+00 -5.18168946E-02  0.00000000E+00  6.34570986E-03 -5.13951298E-01
 -1.64806566E+00  0.00000000E+00 -4.36211414E-03  8.84285083E-04  0.00000000E+00
  1.32474664E-01 -2.32306816E-02  6.34570986E-03 -5.13951298E-01 -1.64806566E+00
  0.00000000E+00  4.36211414E-03  8.84285083E-04  0.00000000E+00 -1.32474664E-01
 -2.32306816E-02  0.00000000E+00  0.00000000E+00  0.00000000E+00  0.00000000E+00
  0.00000000E+00  8.95083099E-03  0.00000000E+00  0.00000000E+00  2.82343583E-02
  0.00000000E+00  0.00000000E+00  4.11810947E-01  0.00000000E+00  0.00000000E+00
  0.00000000E+00  4.72764044E-03  0.00000000E+00  0.00000000E+00  0.00000000E+00
  0.00000000E+00 -1.81501458E-02  0.00000000E+00  0.00000000E+00  0.00000000E+00
  0.00000000E+00  0.00000000E+00  0.00000000E+00  0.00000000E+00 -7.15178632E-02
  0.00000000E+00  0.00000000E+00 -4.77332656E-01  0.00000000E+00  0.00000000E+00
 -2.40908739E+00  0.00000000E+00  0.00000000E+00  0.00000000E+00  2.57523493E-03
  0.00000000E+00  0.00000000E+00  0.00000000E+00  0.00000000E+00  7.50270268E-04
  0.00000000E+00  0.00000000E+00 -2.08368681E-02  6.28340844E-01  4.72587645E+00
  0.00000000E+00  1.71289698E-03 -2.09540892E-03  0.00000000E+00 -1.18173651E-01
  1.44957028E-01  2.08368681E-02 -6.28340844E-01 -4.72587645E+00  0.00000000E+00
  1.71289698E-03  2.09540892E-03  0.00000000E+00 -1.18173651E-01 -1.44957028E-01
  0.00000000E+00  0.00000000E+00  0.00000000E+00  0.00000000E+00 -2.39688203E-01
  0.00000000E+00  0.00000000E+00 -1.91930099E-01  0.00000000E+00  0.00000000E+00
 -6.02817379E-01  0.00000000E+00  0.00000000E+00  0.00000000E+00 -3.00175294E-03
  0.00000000E+00  0.00000000E+00  0.00000000E+00  0.00000000E+00  9.56656017E-03
  0.00000000E+00  0.00000000E+00  0.00000000E+00  0.00000000E+00  0.00000000E+00
  0.00000000E+00  0.00000000E+00  1.89007401E-01  0.00000000E+00  0.00000000E+00
  2.31153878E-01  0.00000000E+00  0.00000000E+00  1.20117555E+00  0.00000000E+00
  0.00000000E+00  0.00000000E+00 -2.99487485E-02  0.00000000E+00  0.00000000E+00
  0.00000000E+00  0.00000000E+00 -2.38745552E-02  0.00000000E+00  0.00000000E+00
  0.00000000E+00  0.00000000E+00  0.00000000E+00  0.00000000E+00  1.69510372E-02
  0.00000000E+00  0.00000000E+00 -2.13035385E-02  0.00000000E+00  0.00000000E+00
  0.00000000E+00  0.00000000E+00  0.00000000E+00  1.69510372E-02  0.00000000E+00
  0.00000000E+00 -2.13035385E-02  0.00000000E+00  0.00000000E+00 -2.75666966E-02
  4.72462614E-02  3.28824751E-01  2.67002464E+00  0.00000000E+00  0.00000000E+00
  9.86391011E-03  0.00000000E+00  0.00000000E+00 -2.14279396E-01  0.00000000E+00
  0.00000000E+00 -3.11673260E-01  4.12186148E-03  0.00000000E+00  0.00000000E+00
 -8.58103448E-04  0.00000000E+00  1.82755446E-02  0.00000000E+00  0.00000000E+00
  6.45965684E-03  0.00000000E+00  8.56016244E-03 -3.50274015E-02 -2.54734102E-02
 -9.68289232E-01  0.00000000E+00  0.00000000E+00 -1.07971714E-02  0.00000000E+00
  0.00000000E+00 -7.95785858E-01  0.00000000E+00  0.00000000E+00 -1.91682899E+00
 -6.58704054E-03  0.00000000E+00  0.00000000E+00  3.12333066E-03  0.00000000E+00
 -1.44686234E-01  0.00000000E+00  0.00000000E+00 -9.22760732E-02  0.00000000E+00
 -6.28970268E-03 -6.90348220E-01 -3.38146326E-01  0.00000000E+00 -3.55578984E-03
 -7.44353812E-03  0.00000000E+00  1.50878949E-01 -5.73024242E-02 -6.28970268E-03
 -6.90348220E-01 -3.38146326E-01  0.00000000E+00  3.55578984E-03 -7.44353812E-03
  0.00000000E+00 -1.50878949E-01 -5.73024242E-02  0.00000000E+00  0.00000000E+00
  0.00000000E+00  0.00000000E+00  2.26166354E-01  0.00000000E+00  0.00000000E+00
  2.62128750E-01  0.00000000E+00  0.00000000E+00  5.74054417E-02  0.00000000E+00
  0.00000000E+00  0.00000000E+00  1.16909363E-02  0.00000000E+00  0.00000000E+00
  0.00000000E+00  0.00000000E+00 -4.81872548E-03  0.00000000E+00  0.00000000E+00
  0.00000000E+00  0.00000000E+00  0.00000000E+00  0.00000000E+00  0.00000000E+00
 -3.99375601E-01  0.00000000E+00  0.00000000E+00 -4.86706553E-01  0.00000000E+00
  0.00000000E+00  9.00986111E-01  0.00000000E+00  0.00000000E+00  0.00000000E+00
  1.95500669E-02  0.00000000E+00  0.00000000E+00  0.00000000E+00  0.00000000E+00
  2.60444688E-04  0.00000000E+00  0.00000000E+00  0.00000000E+00  0.00000000E+00
  0.00000000E+00  0.00000000E+00 -3.81040288E-03  0.00000000E+00  0.00000000E+00
 -2.29270542E-01  0.00000000E+00  0.00000000E+00  0.00000000E+00  0.00000000E+00
  0.00000000E+00 -3.81040288E-03  0.00000000E+00  0.00000000E+00 -2.29270542E-01
  0.00000000E+00  0.00000000E+00  0.00000000E+00  0.00000000E+00  0.00000000E+00
  0.00000000E+00  0.00000000E+00  4.80791742E-02  0.00000000E+00  0.00000000E+00
  1.87865688E-02  0.00000000E+00  0.00000000E+00  7.95423660E-01  0.00000000E+00
  0.00000000E+00  0.00000000E+00 -3.55963397E-03  0.00000000E+00  0.00000000E+00
  0.00000000E+00  0.00000000E+00 -2.43200985E-02  0.00000000E+00  0.00000000E+00