
                                 *****************
                                 * O   R   C   A *
                                 *****************

                                            #,                                       
                                            ###                                      
                                            ####                                     
                                            #####                                    
                                            ######                                   
                                           ########,                                 
                                     ,,################,,,,,                         
                               ,,#################################,,                 
                          ,,##########################################,,             
                       ,#########################################, ''#####,          
                    ,#############################################,,   '####,        
                  ,##################################################,,,,####,       
                ,###########''''           ''''###############################       
              ,#####''   ,,,,##########,,,,          '''####'''          '####       
            ,##' ,,,,###########################,,,                        '##       
           ' ,,###''''                  '''############,,,                           
         ,,##''                                '''############,,,,        ,,,,,,###''
      ,#''                                            '''#######################'''  
     '                                                          ''''####''''         
             ,#######,   #######,   ,#######,      ##                                
            ,#'     '#,  ##    ##  ,#'     '#,    #''#        ######   ,####,        
            ##       ##  ##   ,#'  ##            #'  '#       #        #'  '#        
            ##       ##  #######   ##           ,######,      #####,   #    #        
            '#,     ,#'  ##    ##  '#,     ,#' ,#      #,         ##   #,  ,#        
             '#######'   ##     ##  '#######'  #'      '#     #####' # '####'        



                  #######################################################
                  #                        -***-                        #
                  #          Department of theory and spectroscopy      #
                  #    Directorship and core code : Frank Neese         #
                  #        Max Planck Institute fuer Kohlenforschung    #
                  #                Kaiser Wilhelm Platz 1               #
                  #                 D-45470 Muelheim/Ruhr               #
                  #                      Germany                        #
                  #                                                     #
                  #                  All rights reserved                #
                  #                        -***-                        #
                  #######################################################


                         Program Version 5.0.3 -  RELEASE  -


 With contributions from (in alphabetic order):
   Daniel Aravena         : Magnetic Suceptibility
   Michael Atanasov       : Ab Initio Ligand Field Theory (pilot matlab implementation)
   Alexander A. Auer      : GIAO ZORA, VPT2 properties, NMR spectrum
   Ute Becker             : Parallelization
   Giovanni Bistoni       : ED, misc. LED, open-shell LED, HFLD
   Martin Brehm           : Molecular dynamics
   Dmytro Bykov           : SCF Hessian
   Vijay G. Chilkuri      : MRCI spin determinant printing, contributions to CSF-ICE
   Dipayan Datta          : RHF DLPNO-CCSD density
   Achintya Kumar Dutta   : EOM-CC, STEOM-CC
   Dmitry Ganyushin       : Spin-Orbit,Spin-Spin,Magnetic field MRCI
   Miquel Garcia          : C-PCM and meta-GGA Hessian, CC/C-PCM, Gaussian charge scheme
   Yang Guo               : DLPNO-NEVPT2, F12-NEVPT2, CIM, IAO-localization
   Andreas Hansen         : Spin unrestricted coupled pair/coupled cluster methods
   Benjamin Helmich-Paris : MC-RPA, TRAH-SCF, COSX integrals
   Lee Huntington         : MR-EOM, pCC
   Robert Izsak           : Overlap fitted RIJCOSX, COSX-SCS-MP3, EOM
   Marcus Kettner         : VPT2
   Christian Kollmar      : KDIIS, OOCD, Brueckner-CCSD(T), CCSD density, CASPT2, CASPT2-K
   Simone Kossmann        : Meta GGA functionals, TD-DFT gradient, OOMP2, MP2 Hessian
   Martin Krupicka        : Initial AUTO-CI
   Lucas Lang             : DCDCAS
   Marvin Lechner         : AUTO-CI (C++ implementation), FIC-MRCC
   Dagmar Lenk            : GEPOL surface, SMD
   Dimitrios Liakos       : Extrapolation schemes; Compound Job, initial MDCI parallelization
   Dimitrios Manganas     : Further ROCIS development; embedding schemes
   Dimitrios Pantazis     : SARC Basis sets
   Anastasios Papadopoulos: AUTO-CI, single reference methods and gradients
   Taras Petrenko         : DFT Hessian,TD-DFT gradient, ASA, ECA, R-Raman, ABS, FL, XAS/XES, NRVS
   Peter Pinski           : DLPNO-MP2, DLPNO-MP2 Gradient
   Christoph Reimann      : Effective Core Potentials
   Marius Retegan         : Local ZFS, SOC
   Christoph Riplinger    : Optimizer, TS searches, QM/MM, DLPNO-CCSD(T), (RO)-DLPNO pert. Triples
   Tobias Risthaus        : Range-separated hybrids, TD-DFT gradient, RPA, STAB
   Michael Roemelt        : Original ROCIS implementation
   Masaaki Saitow         : Open-shell DLPNO-CCSD energy and density
   Barbara Sandhoefer     : DKH picture change effects
   Avijit Sen             : IP-ROCIS
   Kantharuban Sivalingam : CASSCF convergence, NEVPT2, FIC-MRCI
   Bernardo de Souza      : ESD, SOC TD-DFT
   Georgi Stoychev        : AutoAux, RI-MP2 NMR, DLPNO-MP2 response
   Willem Van den Heuvel  : Paramagnetic NMR
   Boris Wezisla          : Elementary symmetry handling
   Frank Wennmohs         : Technical directorship


 We gratefully acknowledge several colleagues who have allowed us to
 interface, adapt or use parts of their codes:
   Stefan Grimme, W. Hujo, H. Kruse, P. Pracht,  : VdW corrections, initial TS optimization,
                  C. Bannwarth, S. Ehlert          DFT functionals, gCP, sTDA/sTD-DF
   Ed Valeev, F. Pavosevic, A. Kumar             : LibInt (2-el integral package), F12 methods
   Garnet Chan, S. Sharma, J. Yang, R. Olivares  : DMRG
   Ulf Ekstrom                                   : XCFun DFT Library
   Mihaly Kallay                                 : mrcc  (arbitrary order and MRCC methods)
   Jiri Pittner, Ondrej Demel                    : Mk-CCSD
   Frank Weinhold                                : gennbo (NPA and NBO analysis)
   Christopher J. Cramer and Donald G. Truhlar   : smd solvation model
   Lars Goerigk                                  : TD-DFT with DH, B97 family of functionals
   V. Asgeirsson, H. Jonsson                     : NEB implementation
   FAccTs GmbH                                   : IRC, NEB, NEB-TS, DLPNO-Multilevel, CI-OPT
                                                   MM, QMMM, 2- and 3-layer-ONIOM, Crystal-QMMM,
                                                   LR-CPCM, SF, NACMEs, symmetry and pop. for TD-DFT,
                                                   nearIR, NL-DFT gradient (VV10), updates on ESD,
                                                   ML-optimized integration grids
   S Lehtola, MJT Oliveira, MAL Marques          : LibXC Library
   Liviu Ungur et al                             : ANISO software


 Your calculation uses the libint2 library for the computation of 2-el integrals
 For citations please refer to: http://libint.valeyev.net

 Your ORCA version has been built with support for libXC version: 5.1.0
 For citations please refer to: https://tddft.org/programs/libxc/

 This ORCA versions uses:
   CBLAS   interface :  Fast vector & matrix operations
   LAPACKE interface :  Fast linear algebra routines
   SCALAPACK package :  Parallel linear algebra routines
   Shared memory     :  Shared parallel matrices
   BLAS/LAPACK       :  OpenBLAS 0.3.19 NO_AFFINITY VORTEX SINGLE_THREADED
        Core in use  :  VORTEX
   Copyright (c) 2011-2014, The OpenBLAS Project




***************************************
The coordinates will be read from file: conformer2.xyz
***************************************


Your calculation utilizes the geometrical counterpoise correction gCP
Please cite in your paper:
H.Kruse, S. Grimme J.Chem.Phys., 136, (2012), 154101 
   

Your calculation utilizes the atom-pairwise dispersion correction
based on tight binding partial charges (D4)
Cite in your paper:
E.Caldeweyher, C.Bannwarth, S.Grimme, J.Chem.Phys., (2017), 147, 034112.
E.Caldeweyher, S.Ehlert, A.Hansen, H.Neugebauer, S.Grimme, J.Chem.Phys., (2018), in progress.
   

================================================================================

----- Orbital basis set information -----
Your calculation utilizes the basis: def2-mTZVPP
   Stefan Grimme, Andreas Hansen, Sebastian Ehlert, and Jan-Michael Mewes 
   J. Chem. Phys. 154, 000000 (2021). DOI: 10.1063/5.0040021

----- AuxJ basis set information -----
Your calculation utilizes the basis: def2-mTZVPP/J
   Stefan Grimme, Andreas Hansen, Sebastian Ehlert, and Jan-Michael Mewes 
   J. Chem. Phys. 154, 000000 (2021). DOI: 10.1063/5.0040021

================================================================================
                                        WARNINGS
                       Please study these warnings very carefully!
================================================================================

Using LibXC functional ID 497 : Re-regularized SCAN exchange by Furness et al
[ 1]  J. W. Furness, A. D. Kaplan, J. Ning, J. P. Perdew, and J. Sun, J. Phys. Chem. Lett. 11, 8208 (2020)
[ 2]  J. W. Furness, A. D. Kaplan, J. Ning, J. P. Perdew, and J. Sun, J. Phys. Chem. Lett. 11, 9248 (2020)
Using LibXC functional ID 498 : Re-regularized SCAN correlation by Furness et al
[ 1]  J. W. Furness, A. D. Kaplan, J. Ning, J. P. Perdew, and J. Sun, J. Phys. Chem. Lett. 11, 8208 (2020)
[ 2]  J. W. Furness, A. D. Kaplan, J. Ning, J. P. Perdew, and J. Sun, J. Phys. Chem. Lett. 11, 9248 (2020)
Using LibXC functional ID 497 : Re-regularized SCAN exchange by Furness et al
[ 1]  J. W. Furness, A. D. Kaplan, J. Ning, J. P. Perdew, and J. Sun, J. Phys. Chem. Lett. 11, 8208 (2020)
[ 2]  J. W. Furness, A. D. Kaplan, J. Ning, J. P. Perdew, and J. Sun, J. Phys. Chem. Lett. 11, 9248 (2020)
Using LibXC functional ID 498 : Re-regularized SCAN correlation by Furness et al
[ 1]  J. W. Furness, A. D. Kaplan, J. Ning, J. P. Perdew, and J. Sun, J. Phys. Chem. Lett. 11, 8208 (2020)
[ 2]  J. W. Furness, A. D. Kaplan, J. Ning, J. P. Perdew, and J. Sun, J. Phys. Chem. Lett. 11, 9248 (2020)

WARNING: Geometry Optimization
  ===> : Switching off AutoStart
         For restart on a previous wavefunction, please use MOREAD

INFO   : the flag for use of the SHARK integral package has been found!

================================================================================
                                       INPUT FILE
================================================================================
NAME = orcaJob.inp
|  1> !r2scan-3c OPT FREQ 
|  2> * XYZFILE 0 1 conformer2.xyz
|  3> 
|  4>                          ****END OF INPUT****
================================================================================

                       *****************************
                       * Geometry Optimization Run *
                       *****************************

Geometry optimization settings:
Update method            Update   .... BFGS
Choice of coordinates    CoordSys .... Z-matrix Internals
Initial Hessian          InHess   .... Almoef's Model

Convergence Tolerances:
Energy Change            TolE     ....  5.0000e-06 Eh
Max. Gradient            TolMAXG  ....  3.0000e-04 Eh/bohr
RMS Gradient             TolRMSG  ....  1.0000e-04 Eh/bohr
Max. Displacement        TolMAXD  ....  4.0000e-03 bohr
RMS Displacement         TolRMSD  ....  2.0000e-03 bohr
Strict Convergence                ....  False
------------------------------------------------------------------------------
                        ORCA OPTIMIZATION COORDINATE SETUP
------------------------------------------------------------------------------

The optimization will be done in new redundant internal coordinates
Making redundant internal coordinates   ...  (new redundants) done
Evaluating the initial hessian          ...  (Almloef) done
Evaluating the coordinates              ...  done
Calculating the B-matrix                .... done
Calculating the G-matrix                .... done
Diagonalizing the G-matrix              .... done
Small eigenvalue found = 1.921e-02
Small eigenvalue found = 2.547e-02
The first mode is                       ....   48
The number of degrees of freedom        ....   57

    -----------------------------------------------------------------
                    Redundant Internal Coordinates


    -----------------------------------------------------------------
         Definition                    Initial Value    Approx d2E/dq
    -----------------------------------------------------------------
      1. B(C   1,C   0)                  1.3890         0.626994   
      2. B(C   2,C   1)                  1.3834         0.640113   
      3. B(C   3,C   2)                  1.3843         0.638063   
      4. B(C   4,C   3)                  1.3843         0.638031   
      5. B(C   5,C   0)                  1.3891         0.626965   
      6. B(C   5,C   4)                  1.3834         0.640149   
      7. B(C   6,C   0)                  1.5012         0.415242   
      8. B(C   7,C   6)                  1.5334         0.368926   
      9. B(C   8,C   7)                  1.5231         0.383183   
     10. B(H   9,C   1)                  1.0811         0.372041   
     11. B(H  10,C   2)                  1.0806         0.372801   
     12. B(H  11,C   3)                  1.0802         0.373360   
     13. B(H  12,C   4)                  1.0806         0.372806   
     14. B(H  13,C   5)                  1.0811         0.372038   
     15. B(H  14,C   6)                  1.0922         0.357183   
     16. B(H  15,C   6)                  1.0922         0.357161   
     17. B(H  16,C   7)                  1.0923         0.357012   
     18. B(H  17,C   7)                  1.0923         0.357008   
     19. B(H  18,C   8)                  1.0880         0.362696   
     20. B(H  19,C   8)                  1.0880         0.362693   
     21. B(H  20,C   8)                  1.0876         0.363300   
     22. A(C   1,C   0,C   6)          120.6521         0.404938   
     23. A(C   1,C   0,C   5)          118.6673         0.435819   
     24. A(C   5,C   0,C   6)          120.6416         0.404935   
     25. A(C   2,C   1,H   9)          119.8033         0.356793   
     26. A(C   0,C   1,H   9)          119.4520         0.355541   
     27. A(C   0,C   1,C   2)          120.7443         0.437452   
     28. A(C   3,C   2,H  10)          120.0239         0.356722   
     29. A(C   1,C   2,H  10)          119.8771         0.356916   
     30. A(C   1,C   2,C   3)          120.0990         0.438835   
     31. A(C   2,C   3,C   4)          119.6455         0.438577   
     32. A(C   2,C   3,H  11)          120.1773         0.356813   
     33. A(C   4,C   3,H  11)          120.1771         0.356810   
     34. A(C   3,C   4,C   5)          120.0992         0.438835   
     35. A(C   3,C   4,H  12)          120.0234         0.356720   
     36. A(C   5,C   4,H  12)          119.8774         0.356921   
     37. A(C   0,C   5,C   4)          120.7442         0.437453   
     38. A(C   4,C   5,H  13)          119.8041         0.356796   
     39. A(C   0,C   5,H  13)          119.4513         0.355537   
     40. A(H  14,C   6,H  15)          108.2001         0.290095   
     41. A(C   7,C   6,H  15)          109.0400         0.323218   
     42. A(C   0,C   6,H  15)          109.9608         0.329572   
     43. A(C   7,C   6,H  14)          109.0429         0.323221   
     44. A(C   0,C   6,H  14)          109.9589         0.329576   
     45. A(C   0,C   6,C   7)          110.5910         0.369202   
     46. A(H  16,C   7,H  17)          107.5620         0.290054   
     47. A(C   8,C   7,H  17)          109.6805         0.325214   
     48. A(C   6,C   7,H  17)          109.0433         0.323195   
     49. A(C   8,C   7,H  16)          109.6798         0.325214   
     50. A(C   6,C   7,H  16)          109.0437         0.323196   
     51. A(C   6,C   7,C   8)          111.7344         0.364152   
     52. A(C   7,C   8,H  18)          110.5736         0.326060   
     53. A(H  19,C   8,H  20)          108.3866         0.291573   
     54. A(H  18,C   8,H  20)          108.3863         0.291573   
     55. A(C   7,C   8,H  20)          110.5597         0.326150   
     56. A(H  18,C   8,H  19)          108.2827         0.291496   
     57. A(C   7,C   8,H  19)          110.5725         0.326060   
     58. D(H   9,C   1,C   0,C   5)   -179.9893         0.027241   
     59. D(C   2,C   1,C   0,C   5)      0.2314         0.027241   
     60. D(C   2,C   1,C   0,C   6)    177.9760         0.027241   
     61. D(H   9,C   1,C   0,C   6)     -2.2448         0.027241   
     62. D(H  10,C   2,C   1,H   9)      0.0292         0.028469   
     63. D(H  10,C   2,C   1,C   0)    179.8077         0.028469   
     64. D(C   3,C   2,C   1,C   0)     -0.1249         0.028469   
     65. D(C   3,C   2,C   1,H   9)   -179.9034         0.028469   
     66. D(H  11,C   3,C   2,H  10)     -0.0084         0.028275   
     67. D(H  11,C   3,C   2,C   1)    179.9241         0.028275   
     68. D(C   4,C   3,C   2,H  10)   -179.9187         0.028275   
     69. D(C   4,C   3,C   2,C   1)      0.0137         0.028275   
     70. D(C   5,C   4,C   3,H  11)   -179.9242         0.028272   
     71. D(H  12,C   4,C   3,C   2)    179.9233         0.028272   
     72. D(C   5,C   4,C   3,C   2)     -0.0139         0.028272   
     73. D(H  12,C   4,C   3,H  11)      0.0129         0.028272   
     74. D(H  13,C   5,C   4,H  12)     -0.0400         0.028473   
     75. D(C   0,C   5,C   4,H  12)   -179.8121         0.028473   
     76. D(C   0,C   5,C   4,C   3)      0.1252         0.028473   
     77. D(H  13,C   5,C   0,C   6)      2.2508         0.027238   
     78. D(H  13,C   5,C   4,C   3)    179.8973         0.028473   
     79. D(C   4,C   5,C   0,C   6)   -177.9764         0.027238   
     80. D(C   4,C   5,C   0,C   1)     -0.2316         0.027238   
     81. D(H  13,C   5,C   0,C   1)    179.9955         0.027238   
     82. D(H  15,C   6,C   0,C   5)    -31.7584         0.012759   
     83. D(H  15,C   6,C   0,C   1)    150.5418         0.012759   
     84. D(H  14,C   6,C   0,C   5)   -150.7990         0.012759   
     85. D(H  14,C   6,C   0,C   1)     31.5012         0.012759   
     86. D(C   7,C   6,C   0,C   5)     88.7201         0.012759   
     87. D(C   7,C   6,C   0,C   1)    -88.9797         0.012759   
     88. D(C   8,C   7,C   6,C   0)    179.9845         0.010884   
     89. D(H  17,C   7,C   6,H  14)    -62.4502         0.010884   
     90. D(H  17,C   7,C   6,C   0)     58.5758         0.010884   
     91. D(H  16,C   7,C   6,H  15)     62.4192         0.010884   
     92. D(H  16,C   7,C   6,H  14)   -179.6334         0.010884   
     93. D(H  16,C   7,C   6,C   0)    -58.6073         0.010884   
     94. D(C   8,C   7,C   6,H  15)    -58.9889         0.010884   
     95. D(H  17,C   7,C   6,H  15)    179.6024         0.010884   
     96. D(C   8,C   7,C   6,H  14)     58.9585         0.010884   
     97. D(H  20,C   8,C   7,H  17)    -58.9712         0.011692   
     98. D(H  20,C   8,C   7,C   6)    179.9894         0.011692   
     99. D(H  19,C   8,C   7,H  17)   -179.0114         0.011692   
    100. D(H  19,C   8,C   7,H  16)    -61.0901         0.011692   
    101. D(H  19,C   8,C   7,C   6)     59.9493         0.011692   
    102. D(H  18,C   8,C   7,H  17)     61.0693         0.011692   
    103. D(H  20,C   8,C   7,H  16)     58.9500         0.011692   
    104. D(H  18,C   8,C   7,H  16)    178.9905         0.011692   
    105. D(H  18,C   8,C   7,C   6)    -59.9701         0.011692   
    -----------------------------------------------------------------

Number of atoms                         .... 21
Number of degrees of freedom            .... 105

         *************************************************************
         *                GEOMETRY OPTIMIZATION CYCLE   1            *
         *************************************************************
---------------------------------
CARTESIAN COORDINATES (ANGSTROEM)
---------------------------------
  C     -0.019546    0.096590   -0.370473
  C     -0.714716   -1.095388   -0.529759
  C     -2.068167   -1.167216   -0.252578
  C     -2.746347   -0.045123    0.191506
  C     -2.063028    1.147475    0.355994
  C     -0.709601    1.215653    0.077860
  C      1.457921    0.161285   -0.628448
  C      2.242982   -0.172084    0.645871
  C      3.747061   -0.114381    0.413037
  H     -0.190119   -1.974290   -0.877825
  H     -2.595793   -2.100950   -0.384379
  H     -3.803366   -0.099470    0.407133
  H     -2.586625    2.027443    0.701124
  H     -0.180993    2.149931    0.206408
  H      1.731130   -0.549427   -1.411505
  H      1.734097    1.162887   -0.965327
  H      1.964891    0.534670    1.430969
  H      1.961558   -1.170976    0.986809
  H      4.042696   -0.826333   -0.354795
  H      4.045949    0.880471    0.089339
  H      4.284606   -0.353438    1.327779

----------------------------
CARTESIAN COORDINATES (A.U.)
----------------------------
  NO LB      ZA    FRAG     MASS         X           Y           Z
   0 C     6.0000    0    12.011   -0.036937    0.182529   -0.700092
   1 C     6.0000    0    12.011   -1.350618   -2.069983   -1.001099
   2 C     6.0000    0    12.011   -3.908268   -2.205720   -0.477303
   3 C     6.0000    0    12.011   -5.189843   -0.085269    0.361894
   4 C     6.0000    0    12.011   -3.898559    2.168414    0.672732
   5 C     6.0000    0    12.011   -1.340951    2.297252    0.147134
   6 C     6.0000    0    12.011    2.755072    0.304784   -1.187595
   7 C     6.0000    0    12.011    4.238621   -0.325192    1.220519
   8 C     6.0000    0    12.011    7.080919   -0.216149    0.780528
   9 H     1.0000    0     1.008   -0.359274   -3.730867   -1.658848
  10 H     1.0000    0     1.008   -4.905338   -3.970220   -0.726372
  11 H     1.0000    0     1.008   -7.187319   -0.187970    0.769369
  12 H     1.0000    0     1.008   -4.888013    3.831313    1.324932
  13 H     1.0000    0     1.008   -0.342028    4.062781    0.390054
  14 H     1.0000    0     1.008    3.271361   -1.038267   -2.667358
  15 H     1.0000    0     1.008    3.276969    2.197537   -1.824204
  16 H     1.0000    0     1.008    3.713105    1.010381    2.704140
  17 H     1.0000    0     1.008    3.706807   -2.212823    1.864799
  18 H     1.0000    0     1.008    7.639588   -1.561543   -0.670465
  19 H     1.0000    0     1.008    7.645735    1.663850    0.168826
  20 H     1.0000    0     1.008    8.096732   -0.667901    2.509139

--------------------------------
INTERNAL COORDINATES (ANGSTROEM)
--------------------------------
 C      0   0   0     0.000000000000     0.00000000     0.00000000
 C      1   0   0     1.389044448520     0.00000000     0.00000000
 C      2   1   0     1.383407381351   120.74433970     0.00000000
 C      3   2   1     1.384280712571   120.09898678   359.87514188
 C      4   3   2     1.384294089324   119.64554225     0.00000000
 C      5   4   3     1.383392111618   120.09918928     0.00000000
 C      1   2   3     1.501215300183   120.65213779   177.97596594
 C      7   1   2     1.533408894153   110.59095879   271.02033820
 C      8   7   1     1.523087307639   111.73442364   179.98451235
 H      2   1   3     1.081120122124   119.45203280   179.77927870
 H      3   2   1     1.080564567470   119.87710464   179.80767332
 H      4   3   2     1.080156399196   120.17728811   179.92407902
 H      5   4   3     1.080560536459   120.02336006   179.92329840
 H      6   5   4     1.081122408615   119.80409539   179.89725409
 H      7   1   2     1.092214284020   109.95886784    31.50119010
 H      7   1   2     1.092230483109   109.96075509   150.54178694
 H      8   7   1     1.092344680362   109.04369014   301.39267251
 H      8   7   1     1.092347328303   109.04333329    58.57580614
 H      9   8   7     1.088044991727   110.57361593   300.02992262
 H      9   8   7     1.088046838413   110.57252619    59.94926590
 H      9   8   7     1.087591583342   110.55970292   179.98943822

---------------------------
INTERNAL COORDINATES (A.U.)
---------------------------
 C      0   0   0     0.000000000000     0.00000000     0.00000000
 C      1   0   0     2.624913595547     0.00000000     0.00000000
 C      2   1   0     2.614261082398   120.74433970     0.00000000
 C      3   2   1     2.615911439229   120.09898678   359.87514188
 C      4   3   2     2.615936717629   119.64554225     0.00000000
 C      5   4   3     2.614232226784   120.09918928     0.00000000
 C      1   2   3     2.836885785398   120.65213779   177.97596594
 C      7   1   2     2.897722861268   110.59095879   271.02033820
 C      8   7   1     2.878217889489   111.73442364   179.98451235
 H      2   1   3     2.043020948686   119.45203280   179.77927870
 H      3   2   1     2.041971102537   119.87710464   179.80767332
 H      4   3   2     2.041199776283   120.17728811   179.92407902
 H      5   4   3     2.041963485031   120.02336006   179.92329840
 H      6   5   4     2.043025269527   119.80409539   179.89725409
 H      7   1   2     2.063985876355   109.95886784    31.50119010
 H      7   1   2     2.064016488196   109.96075509   150.54178694
 H      8   7   1     2.064232289729   109.04369014   301.39267251
 H      8   7   1     2.064237293614   109.04333329    58.57580614
 H      9   8   7     2.056107055749   110.57361593   300.02992262
 H      9   8   7     2.056110545480   110.57252619    59.94926590
 H      9   8   7     2.055250238075   110.55970292   179.98943822

---------------------
BASIS SET INFORMATION
---------------------
There are 2 groups of distinct atoms

 Group   1 Type C   : 11s6p1d contracted to 5s3p1d pattern {62111/411/1}
 Group   2 Type H   : 4s1p contracted to 2s1p pattern {31/1}

Atom   0C    basis set group =>   1
Atom   1C    basis set group =>   1
Atom   2C    basis set group =>   1
Atom   3C    basis set group =>   1
Atom   4C    basis set group =>   1
Atom   5C    basis set group =>   1
Atom   6C    basis set group =>   1
Atom   7C    basis set group =>   1
Atom   8C    basis set group =>   1
Atom   9H    basis set group =>   2
Atom  10H    basis set group =>   2
Atom  11H    basis set group =>   2
Atom  12H    basis set group =>   2
Atom  13H    basis set group =>   2
Atom  14H    basis set group =>   2
Atom  15H    basis set group =>   2
Atom  16H    basis set group =>   2
Atom  17H    basis set group =>   2
Atom  18H    basis set group =>   2
Atom  19H    basis set group =>   2
Atom  20H    basis set group =>   2
---------------------------------
AUXILIARY/J BASIS SET INFORMATION
---------------------------------
There are 2 groups of distinct atoms

 Group   1 Type C   : 8s3p3d contracted to 6s3p3d pattern {311111/111/111}
 Group   2 Type H   : 5s2p1d contracted to 3s1p1d pattern {311/2/1}

Atom   0C    basis set group =>   1
Atom   1C    basis set group =>   1
Atom   2C    basis set group =>   1
Atom   3C    basis set group =>   1
Atom   4C    basis set group =>   1
Atom   5C    basis set group =>   1
Atom   6C    basis set group =>   1
Atom   7C    basis set group =>   1
Atom   8C    basis set group =>   1
Atom   9H    basis set group =>   2
Atom  10H    basis set group =>   2
Atom  11H    basis set group =>   2
Atom  12H    basis set group =>   2
Atom  13H    basis set group =>   2
Atom  14H    basis set group =>   2
Atom  15H    basis set group =>   2
Atom  16H    basis set group =>   2
Atom  17H    basis set group =>   2
Atom  18H    basis set group =>   2
Atom  19H    basis set group =>   2
Atom  20H    basis set group =>   2
------------------------------------------------------------------------------
                           ORCA GTO INTEGRAL CALCULATION
                           -- RI-GTO INTEGRALS CHOSEN --
------------------------------------------------------------------------------
------------------------------------------------------------------------------
                   ___                                                        
                  /   \      - P O W E R E D   B Y -                         
                 /     \                                                     
                 |  |  |   _    _      __       _____    __    __             
                 |  |  |  | |  | |    /  \     |  _  \  |  |  /  |          
                  \  \/   | |  | |   /    \    | | | |  |  | /  /          
                 / \  \   | |__| |  /  /\  \   | |_| |  |  |/  /          
                |  |  |   |  __  | /  /__\  \  |    /   |      \           
                |  |  |   | |  | | |   __   |  |    \   |  |\   \          
                \     /   | |  | | |  |  |  |  | |\  \  |  | \   \       
                 \___/    |_|  |_| |__|  |__|  |_| \__\ |__|  \__/        
                                                                              
                      - O R C A' S   B I G   F R I E N D -                    
                                      &                                       
                       - I N T E G R A L  F E E D E R -                       
                                                                              
 v1 FN, 2020, v2 2021                                                         
------------------------------------------------------------------------------


Reading SHARK input file orcaJob.SHARKINP.tmp ... ok
----------------------
SHARK INTEGRAL PACKAGE
----------------------

Number of atoms                             ...     21
Number of basis functions                   ...    231
Number of shells                            ...    117
Maximum angular momentum                    ...      2
Integral batch strategy                     ... SHARK/LIBINT Hybrid
RI-J (if used) integral strategy            ... SPLIT-RIJ (Revised 2003 algorithm where possible)
Printlevel                                  ...      1
Contraction scheme used                     ... SEGMENTED contraction
Coulomb Range Separation                    ... NOT USED
Exchange Range Separation                   ... NOT USED
Finite Nucleus Model                        ... NOT USED
Auxiliary Coulomb fitting basis             ... AVAILABLE
   # of basis functions in Aux-J            ...    402
   # of shells in Aux-J                     ...    168
   Maximum angular momentum in Aux-J        ...      2
Auxiliary J/K fitting basis                 ... NOT available
Auxiliary Correlation fitting basis         ... NOT available
Auxiliary 'external' fitting basis          ... NOT available
Integral threshold                          ...     2.500000e-11
Primitive cut-off                           ...     2.500000e-12
Primitive pair pre-selection threshold      ...     2.500000e-12

Calculating pre-screening integrals         ... done (  0.0 sec) Dimension = 117
Organizing shell pair data                  ... done (  0.0 sec)
Shell pair information
Total number of shell pairs                 ...      6903
Shell pairs after pre-screening             ...      5983
Total number of primitive shell pairs       ...     24987
Primitive shell pairs kept                  ...     15262
          la=0 lb=0:   2060 shell pairs
          la=1 lb=0:   2344 shell pairs
          la=1 lb=1:    694 shell pairs
          la=2 lb=0:    538 shell pairs
          la=2 lb=1:    306 shell pairs
          la=2 lb=2:     41 shell pairs

Calculating one electron integrals          ... done (  0.0 sec)
Calculating RI/J V-Matrix + Cholesky decomp.... done (  0.0 sec)
Calculating Nuclear repulsion               ... done (  0.0 sec) ENN=    414.301388715152 Eh

SHARK setup successfully completed in   0.1 seconds

Maximum memory used throughout the entire GTOINT-calculation: 33.8 MB
-------------------------------------------------------------------------------
                                 ORCA SCF
-------------------------------------------------------------------------------

------------
SCF SETTINGS
------------
Hamiltonian:
 Density Functional     Method          .... DFT(GTOs)
  Functional kind                       .... Exchange
  Functional name                       .... Re-regularized SCAN exchange by Furness et al
  Functional family                     .... MGGA
  Functional refs                              
    [ 0] J. W. Furness, A. D. Kaplan, J. Ning, J. P. Perdew, and J. Sun, J. Phys. Chem. Lett. 11, 8208 (2020)
    [ 1] J. W. Furness, A. D. Kaplan, J. Ning, J. P. Perdew, and J. Sun, J. Phys. Chem. Lett. 11, 9248 (2020)
  Functional external parameters         .... 8
 Parameter  0 :         c1 parameter
 Parameter  1 :         c2 parameter
 Parameter  2 :          d parameter
 Parameter  3 :         k1 parameter
 Parameter  4 :       taur parameter
 Parameter  5 :     alphar parameter
 Parameter  6 :        eta parameter
 Parameter  7 :        dp2 parameter
  Functional kind                       .... Correlation
  Functional name                       .... Re-regularized SCAN correlation by Furness et al
  Functional family                     .... MGGA
  Functional refs                              
    [ 0] J. W. Furness, A. D. Kaplan, J. Ning, J. P. Perdew, and J. Sun, J. Phys. Chem. Lett. 11, 8208 (2020)
    [ 1] J. W. Furness, A. D. Kaplan, J. Ning, J. P. Perdew, and J. Sun, J. Phys. Chem. Lett. 11, 9248 (2020)
  Functional external parameters         .... 0
 Gradients option       PostSCFGGA      .... off
   Density functional embedding theory  .... OFF
 RI-approximation to the Coulomb term is turned on
   Number of AuxJ basis functions       .... 402


General Settings:
 Integral files         IntName         .... orcaJob
 Hartree-Fock type      HFTyp           .... RHF
 Total Charge           Charge          ....    0
 Multiplicity           Mult            ....    1
 Number of Electrons    NEL             ....   66
 Basis Dimension        Dim             ....  231
 Nuclear Repulsion      ENuc            ....    414.3013887152 Eh

Convergence Acceleration:
 DIIS                   CNVDIIS         .... on
   Start iteration      DIISMaxIt       ....    12
   Startup error        DIISStart       ....  0.200000
   # of expansion vecs  DIISMaxEq       ....     5
   Bias factor          DIISBfac        ....   1.050
   Max. coefficient     DIISMaxC        ....  10.000
 Trust-Rad. Augm. Hess. CNVTRAH         .... auto
   Auto Start mean grad. ratio tolernc. ....  1.125000
   Auto Start start iteration           ....    20
   Auto Start num. interpolation iter.  ....    10
   Max. Number of Micro iterations      ....    16
   Max. Number of Macro iterations      .... Maxiter - #DIIS iter
   Number of Davidson start vectors     ....     2
   Converg. threshold I  (grad. norm)   ....   1.000e-05
   Converg. threshold II (energy diff.) ....   1.000e-08
   Grad. Scal. Fac. for Micro threshold ....   0.100
   Minimum threshold for Micro iter.    ....   0.010
   NR start threshold (gradient norm)   ....   0.001
   Initial trust radius                 ....   0.400
   Minimum AH scaling param. (alpha)    ....   1.000
   Maximum AH scaling param. (alpha)    .... 1000.000
   Orbital update algorithm             .... Taylor
   White noise on init. David. guess    .... on
   Maximum white noise                  ....   0.010
   Quad. conv. algorithm                .... NR
   COSX micro iterations for RIJONX calc.... off
 SOSCF                  CNVSOSCF        .... on
   Start iteration      SOSCFMaxIt      ....   150
   Startup grad/error   SOSCFStart      ....  0.003300
 Level Shifting         CNVShift        .... on
   Level shift para.    LevelShift      ....    0.2500
   Turn off err/grad.   ShiftErr        ....    0.0010
 Zerner damping         CNVZerner       .... off
 Static damping         CNVDamp         .... on
   Fraction old density DampFac         ....    0.7000
   Max. Damping (<1)    DampMax         ....    0.9800
   Min. Damping (>=0)   DampMin         ....    0.0000
   Turn off err/grad.   DampErr         ....    0.1000
 Fernandez-Rico         CNVRico         .... off

SCF Procedure:
 Maximum # iterations   MaxIter         ....   125
 SCF integral mode      SCFMode         .... Direct
   Integral package                     .... SHARK and LIBINT hybrid scheme
 Reset frequency        DirectResetFreq ....    20
 Integral Threshold     Thresh          ....  2.500e-11 Eh
 Primitive CutOff       TCut            ....  2.500e-12 Eh

Convergence Tolerance:
 Convergence Check Mode ConvCheckMode   .... Total+1el-Energy
 Convergence forced     ConvForced      .... 0
 Energy Change          TolE            ....  1.000e-08 Eh
 1-El. energy change                    ....  1.000e-05 Eh
 Orbital Gradient       TolG            ....  1.000e-05
 Orbital Rotation angle TolX            ....  1.000e-05
 DIIS Error             TolErr          ....  5.000e-07


Diagonalization of the overlap matrix:
Smallest eigenvalue                        ... 3.307e-05
Time for diagonalization                   ...    0.004 sec
Threshold for overlap eigenvalues          ... 1.000e-08
Number of eigenvalues below threshold      ... 0
Time for construction of square roots      ...    0.002 sec
Total time needed                          ...    0.006 sec

Time for model grid setup =    0.118 sec

------------------------------
INITIAL GUESS: MODEL POTENTIAL
------------------------------
Loading Hartree-Fock densities                     ... done
Calculating cut-offs                               ... done
Initializing the effective Hamiltonian             ... done
Setting up the integral package (SHARK)            ... done
Starting the Coulomb interaction                   ... done (   0.1 sec)
Reading the grid                                   ... done
Mapping shells                                     ... done
Starting the XC term evaluation                    ... done (   0.2 sec)
  promolecular density results
     # of electrons  =     65.992010068
     EX              =    -49.587394258
     EC              =     -2.161532786
     EX+EC           =    -51.748927045
Transforming the Hamiltonian                       ... done (   0.0 sec)
Diagonalizing the Hamiltonian                      ... done (   0.0 sec)
Back transforming the eigenvectors                 ... done (   0.0 sec)
Now organizing SCF variables                       ... done
                      ------------------
                      INITIAL GUESS DONE (   0.4 sec)
                      ------------------
-------------------
DFT GRID GENERATION
-------------------

General Integration Accuracy     IntAcc      ... 4.388
Radial Grid Type                 RadialGrid  ... OptM3 with GC (2021)
Angular Grid (max. ang.)         AngularGrid ... 4 (Lebedev-302)
Angular grid pruning method      GridPruning ... 4 (adaptive)
Weight generation scheme         WeightScheme... Becke
Basis function cutoff            BFCut       ... 1.0000e-11
Integration weight cutoff        WCut        ... 1.0000e-14
Angular grids for H and He will be reduced by one unit
Partially contracted basis set               ... off
Rotationally invariant grid construction     ... off

Total number of grid points                  ...    92465
Total number of batches                      ...     1454
Average number of points per batch           ...       63
Average number of grid points per atom       ...     4403
Time for grid setup =    0.496 sec

--------------
SCF ITERATIONS
--------------
ITER       Energy         Delta-E        Max-DP      RMS-DP      [F,P]     Damp
               ***  Starting incremental Fock matrix formation  ***
  0   -349.8323060512   0.000000000000 0.03561620  0.00147482  0.1895291 0.7000
  1   -349.9509096711  -0.118603619904 0.03310332  0.00119839  0.0968129 0.7000
                               ***Turning on DIIS***
  2   -349.9993039825  -0.048394311391 0.06077467  0.00232212  0.0341205 0.0000
  3   -350.0649384429  -0.065634460395 0.02959277  0.00088043  0.0557873 0.0000
  4   -350.0864722434  -0.021533800505 0.01228350  0.00034429  0.0088486 0.0000
                      *** Initiating the SOSCF procedure ***
                           *** Shutting down DIIS ***
                      *** Re-Reading the Fockian *** 
                      *** Removing any level shift *** 
ITER      Energy       Delta-E        Grad      Rot      Max-DP    RMS-DP
  5   -350.08739002  -0.0009177753  0.000850  0.000850  0.005598  0.000158
               *** Restarting incremental Fock matrix formation ***
  6   -350.08744259  -0.0000525665  0.000313  0.001583  0.004565  0.000111
  7   -350.08743749   0.0000050993  0.000842  0.001593  0.000687  0.000023
  8   -350.08744788  -0.0000103927  0.000211  0.000657  0.000905  0.000025
  9   -350.08744678   0.0000010995  0.000241  0.000365  0.000375  0.000014
 10   -350.08744863  -0.0000018557  0.000013  0.000040  0.000108  0.000002
 11   -350.08744862   0.0000000152  0.000020  0.000029  0.000048  0.000001
                  ***Gradient check signals convergence***
              ***Rediagonalizing the Fockian in SOSCF/NRSCF***

               *****************************************************
               *                     SUCCESS                       *
               *           SCF CONVERGED AFTER  12 CYCLES          *
               *****************************************************


----------------
TOTAL SCF ENERGY
----------------

Total Energy       :         -350.08744864 Eh           -9526.36379 eV

Components:
Nuclear Repulsion  :          414.30138872 Eh           11273.71393 eV
Electronic Energy  :         -764.38883736 Eh          -20800.07772 eV
One Electron Energy:        -1291.48980343 Eh          -35143.22420 eV
Two Electron Energy:          527.10096607 Eh           14343.14648 eV

Virial components:
Potential Energy   :         -698.70824081 Eh          -19012.81783 eV
Kinetic Energy     :          348.62079217 Eh            9486.45404 eV
Virial Ratio       :            2.00420703


DFT components:
N(Alpha)           :       33.000024865662 electrons
N(Beta)            :       33.000024865662 electrons
N(Total)           :       66.000049731324 electrons
E(X)               :      -51.161640000150 Eh       
E(C)               :       -2.082154282280 Eh       
E(XC)              :      -53.243794282429 Eh       
DFET-embed. en.    :        0.000000000000 Eh       

---------------
SCF CONVERGENCE
---------------

  Last Energy change         ...   -2.4169e-08  Tolerance :   1.0000e-08
  Last MAX-Density change    ...    9.2315e-06  Tolerance :   1.0000e-07
  Last RMS-Density change    ...    4.5089e-07  Tolerance :   5.0000e-09
  Last Orbital Gradient      ...    1.3206e-06  Tolerance :   1.0000e-05
  Last Orbital Rotation      ...    5.2076e-06  Tolerance :   1.0000e-05

             **** THE GBW FILE WAS UPDATED (orcaJob.gbw) ****
             **** DENSITY orcaJob.scfp WAS UPDATED ****
             **** ENERGY FILE WAS UPDATED (orcaJob.en.tmp) ****
             **** THE GBW FILE WAS UPDATED (orcaJob.gbw) ****
             **** DENSITY orcaJob.scfp WAS UPDATED ****
----------------
ORBITAL ENERGIES
----------------

  NO   OCC          E(Eh)            E(eV) 
   0   2.0000     -10.037360      -273.1305 
   1   2.0000     -10.030739      -272.9503 
   2   2.0000     -10.030696      -272.9491 
   3   2.0000     -10.030135      -272.9338 
   4   2.0000     -10.028509      -272.8896 
   5   2.0000     -10.028276      -272.8833 
   6   2.0000     -10.028257      -272.8827 
   7   2.0000     -10.027912      -272.8734 
   8   2.0000     -10.017606      -272.5929 
   9   2.0000      -0.827028       -22.5046 
  10   2.0000      -0.765658       -20.8346 
  11   2.0000      -0.714570       -19.4444 
  12   2.0000      -0.712824       -19.3969 
  13   2.0000      -0.645154       -17.5555 
  14   2.0000      -0.573470       -15.6049 
  15   2.0000      -0.567903       -15.4534 
  16   2.0000      -0.542254       -14.7555 
  17   2.0000      -0.480435       -13.0733 
  18   2.0000      -0.443911       -12.0794 
  19   2.0000      -0.424630       -11.5548 
  20   2.0000      -0.409333       -11.1385 
  21   2.0000      -0.396236       -10.7821 
  22   2.0000      -0.386839       -10.5264 
  23   2.0000      -0.383540       -10.4367 
  24   2.0000      -0.347840        -9.4652 
  25   2.0000      -0.347370        -9.4524 
  26   2.0000      -0.331557        -9.0221 
  27   2.0000      -0.311408        -8.4739 
  28   2.0000      -0.310097        -8.4382 
  29   2.0000      -0.297703        -8.1009 
  30   2.0000      -0.295612        -8.0440 
  31   2.0000      -0.233797        -6.3619 
  32   2.0000      -0.223351        -6.0777 
  33   0.0000      -0.028388        -0.7725 
  34   0.0000      -0.025668        -0.6985 
  35   0.0000       0.075773         2.0619 
  36   0.0000       0.100662         2.7391 
  37   0.0000       0.111106         3.0233 
  38   0.0000       0.111960         3.0466 
  39   0.0000       0.115321         3.1380 
  40   0.0000       0.126430         3.4403 
  41   0.0000       0.137397         3.7388 
  42   0.0000       0.141877         3.8607 
  43   0.0000       0.145418         3.9570 
  44   0.0000       0.163865         4.4590 
  45   0.0000       0.166275         4.5246 
  46   0.0000       0.183084         4.9820 
  47   0.0000       0.188416         5.1271 
  48   0.0000       0.193022         5.2524 
  49   0.0000       0.194475         5.2919 
  50   0.0000       0.207268         5.6401 
  51   0.0000       0.215847         5.8735 
  52   0.0000       0.222802         6.0628 
  53   0.0000       0.228590         6.2202 
  54   0.0000       0.228835         6.2269 
  55   0.0000       0.233307         6.3486 
  56   0.0000       0.247755         6.7418 
  57   0.0000       0.252572         6.8728 
  58   0.0000       0.262919         7.1544 
  59   0.0000       0.264824         7.2062 
  60   0.0000       0.273944         7.4544 
  61   0.0000       0.289006         7.8643 
  62   0.0000       0.296670         8.0728 
  63   0.0000       0.315798         8.5933 
  64   0.0000       0.329394         8.9633 
  65   0.0000       0.331753         9.0275 
  66   0.0000       0.346614         9.4319 
  67   0.0000       0.349643         9.5143 
  68   0.0000       0.352783         9.5997 
  69   0.0000       0.363986         9.9046 
  70   0.0000       0.380503        10.3540 
  71   0.0000       0.393297        10.7022 
  72   0.0000       0.414162        11.2699 
  73   0.0000       0.421862        11.4794 
  74   0.0000       0.456267        12.4156 
  75   0.0000       0.466891        12.7048 
  76   0.0000       0.494209        13.4481 
  77   0.0000       0.495374        13.4798 
  78   0.0000       0.501312        13.6414 
  79   0.0000       0.505726        13.7615 
  80   0.0000       0.511466        13.9177 
  81   0.0000       0.532709        14.4957 
  82   0.0000       0.551627        15.0105 
  83   0.0000       0.558729        15.2038 
  84   0.0000       0.570085        15.5128 
  85   0.0000       0.577268        15.7083 
  86   0.0000       0.581299        15.8179 
  87   0.0000       0.600043        16.3280 
  88   0.0000       0.605838        16.4857 
  89   0.0000       0.663915        18.0661 
  90   0.0000       0.666037        18.1238 
  91   0.0000       0.703112        19.1326 
  92   0.0000       0.711749        19.3677 
  93   0.0000       1.008341        27.4384 
  94   0.0000       1.041114        28.3302 
  95   0.0000       1.056564        28.7506 
  96   0.0000       1.062993        28.9255 
  97   0.0000       1.077798        29.3284 
  98   0.0000       1.092340        29.7241 
  99   0.0000       1.110571        30.2202 
 100   0.0000       1.112939        30.2846 
 101   0.0000       1.122634        30.5484 
 102   0.0000       1.134391        30.8684 
 103   0.0000       1.176835        32.0233 
 104   0.0000       1.187266        32.3072 
 105   0.0000       1.232369        33.5345 
 106   0.0000       1.239641        33.7323 
 107   0.0000       1.275387        34.7050 
 108   0.0000       1.281421        34.8692 
 109   0.0000       1.286908        35.0185 
 110   0.0000       1.302326        35.4381 
 111   0.0000       1.318309        35.8730 
 112   0.0000       1.330140        36.1949 
 113   0.0000       1.335864        36.3507 
 114   0.0000       1.352803        36.8117 
 115   0.0000       1.355897        36.8958 
 116   0.0000       1.366916        37.1957 
 117   0.0000       1.375641        37.4331 
 118   0.0000       1.380191        37.5569 
 119   0.0000       1.387481        37.7553 
 120   0.0000       1.392254        37.8852 
 121   0.0000       1.415852        38.5273 
 122   0.0000       1.426701        38.8225 
 123   0.0000       1.439979        39.1838 
 124   0.0000       1.451916        39.5087 
 125   0.0000       1.452665        39.5290 
 126   0.0000       1.463615        39.8270 
 127   0.0000       1.482936        40.3527 
 128   0.0000       1.490502        40.5586 
 129   0.0000       1.495791        40.7025 
 130   0.0000       1.519508        41.3479 
 131   0.0000       1.530719        41.6530 
 132   0.0000       1.532893        41.7121 
 133   0.0000       1.539515        41.8923 
 134   0.0000       1.555812        42.3358 
 135   0.0000       1.568140        42.6713 
 136   0.0000       1.582930        43.0737 
 137   0.0000       1.598980        43.5105 
 138   0.0000       1.621277        44.1172 
 139   0.0000       1.622661        44.1548 
 140   0.0000       1.628904        44.3247 
 141   0.0000       1.659899        45.1682 
 142   0.0000       1.671650        45.4879 
 143   0.0000       1.674527        45.5662 
 144   0.0000       1.744773        47.4777 
 145   0.0000       1.790872        48.7321 
 146   0.0000       1.811630        49.2970 
 147   0.0000       1.862134        50.6712 
 148   0.0000       1.886743        51.3409 
 149   0.0000       1.895828        51.5881 
 150   0.0000       1.904379        51.8208 
 151   0.0000       2.009037        54.6687 
 152   0.0000       2.017438        54.8973 
 153   0.0000       2.065876        56.2154 
 154   0.0000       2.068577        56.2888 
 155   0.0000       2.068955        56.2991 
 156   0.0000       2.071770        56.3757 
 157   0.0000       2.100096        57.1465 
 158   0.0000       2.104425        57.2643 
 159   0.0000       2.151778        58.5528 
 160   0.0000       2.162934        58.8564 
 161   0.0000       2.176590        59.2280 
 162   0.0000       2.196457        59.7686 
 163   0.0000       2.207746        60.0758 
 164   0.0000       2.228695        60.6459 
 165   0.0000       2.252576        61.2957 
 166   0.0000       2.268500        61.7290 
 167   0.0000       2.274210        61.8844 
 168   0.0000       2.288317        62.2683 
 169   0.0000       2.294020        62.4235 
 170   0.0000       2.309304        62.8394 
 171   0.0000       2.311128        62.8890 
 172   0.0000       2.329137        63.3790 
 173   0.0000       2.337263        63.6002 
 174   0.0000       2.341979        63.7285 
 175   0.0000       2.359223        64.1977 
 176   0.0000       2.368502        64.4502 
 177   0.0000       2.388644        64.9983 
 178   0.0000       2.391305        65.0707 
 179   0.0000       2.410673        65.5978 
 180   0.0000       2.414873        65.7120 
 181   0.0000       2.435897        66.2841 
 182   0.0000       2.520266        68.5799 
 183   0.0000       2.543210        69.2043 
 184   0.0000       2.581334        70.2417 
 185   0.0000       2.587927        70.4211 
 186   0.0000       2.643645        71.9372 
 187   0.0000       2.687811        73.1391 
 188   0.0000       2.691671        73.2441 
 189   0.0000       2.715394        73.8896 
 190   0.0000       2.738660        74.5227 
 191   0.0000       2.757622        75.0387 
 192   0.0000       2.785470        75.7965 
 193   0.0000       2.797290        76.1181 
 194   0.0000       2.797465        76.1229 
 195   0.0000       2.842373        77.3449 
 196   0.0000       2.845901        77.4409 
 197   0.0000       2.873628        78.1954 
 198   0.0000       2.883431        78.4621 
 199   0.0000       2.896818        78.8264 
 200   0.0000       2.948316        80.2278 
 201   0.0000       3.004553        81.7580 
 202   0.0000       3.053655        83.0942 
 203   0.0000       3.142096        85.5008 
 204   0.0000       3.182301        86.5948 
 205   0.0000       3.223783        87.7236 
 206   0.0000       3.241175        88.1969 
 207   0.0000       3.254456        88.5583 
 208   0.0000       3.280283        89.2610 
 209   0.0000       3.293209        89.6128 
 210   0.0000       3.402352        92.5827 
 211   0.0000       3.434614        93.4606 
 212   0.0000       3.533380        96.1482 
 213   0.0000       3.543842        96.4328 
 214   0.0000       3.553855        96.7053 
 215   0.0000       3.581912        97.4688 
 216   0.0000       3.597453        97.8917 
 217   0.0000       3.614422        98.3534 
 218   0.0000       3.644101        99.1610 
 219   0.0000       3.647854        99.2631 
 220   0.0000       3.665690        99.7485 
 221   0.0000       4.094219       111.4094 
 222   0.0000      21.393435       582.1450 
 223   0.0000      21.878122       595.3340 
 224   0.0000      21.941643       597.0625 
 225   0.0000      21.964212       597.6766 
 226   0.0000      21.987150       598.3008 
 227   0.0000      22.113665       601.7434 
 228   0.0000      22.193569       603.9177 
 229   0.0000      22.194080       603.9316 
 230   0.0000      22.346882       608.0896 

                    ********************************
                    * MULLIKEN POPULATION ANALYSIS *
                    ********************************

-----------------------
MULLIKEN ATOMIC CHARGES
-----------------------
   0 C :    0.230681
   1 C :   -0.225156
   2 C :   -0.161981
   3 C :   -0.148053
   4 C :   -0.161974
   5 C :   -0.225216
   6 C :   -0.371527
   7 C :   -0.225464
   8 C :   -0.473354
   9 H :    0.148711
  10 H :    0.145209
  11 H :    0.146806
  12 H :    0.145207
  13 H :    0.148673
  14 H :    0.150153
  15 H :    0.150232
  16 H :    0.145918
  17 H :    0.145931
  18 H :    0.143504
  19 H :    0.143476
  20 H :    0.148223
Sum of atomic charges:   -0.0000000

--------------------------------
MULLIKEN REDUCED ORBITAL CHARGES
--------------------------------
  0 C s       :     3.098353  s :     3.098353
      pz      :     0.945537  p :     2.621206
      px      :     0.785462
      py      :     0.890208
      dz2     :     0.004420  d :     0.049760
      dxz     :     0.007089
      dyz     :     0.007380
      dx2y2   :     0.015146
      dxy     :     0.015725
  1 C s       :     3.185489  s :     3.185489
      pz      :     1.010435  p :     3.000855
      px      :     0.981469
      py      :     1.008952
      dz2     :     0.003190  d :     0.038813
      dxz     :     0.006184
      dyz     :     0.004349
      dx2y2   :     0.011978
      dxy     :     0.013111
  2 C s       :     3.190214  s :     3.190214
      pz      :     0.980147  p :     2.932478
      px      :     0.950206
      py      :     1.002125
      dz2     :     0.004110  d :     0.039289
      dxz     :     0.006530
      dyz     :     0.003989
      dx2y2   :     0.011932
      dxy     :     0.012728
  3 C s       :     3.174892  s :     3.174892
      pz      :     0.993587  p :     2.934199
      px      :     1.029354
      py      :     0.911258
      dz2     :     0.003773  d :     0.038963
      dxz     :     0.003349
      dyz     :     0.007033
      dx2y2   :     0.013076
      dxy     :     0.011731
  4 C s       :     3.190202  s :     3.190202
      pz      :     0.987594  p :     2.932481
      px      :     0.949758
      py      :     0.995129
      dz2     :     0.003209  d :     0.039290
      dxz     :     0.006458
      dyz     :     0.004562
      dx2y2   :     0.012257
      dxy     :     0.012805
  5 C s       :     3.185621  s :     3.185621
      pz      :     1.003558  p :     3.000783
      px      :     0.982007
      py      :     1.015218
      dz2     :     0.003970  d :     0.038811
      dxz     :     0.006302
      dyz     :     0.003835
      dx2y2   :     0.011713
      dxy     :     0.012991
  6 C s       :     3.294315  s :     3.294315
      pz      :     0.996355  p :     3.038214
      px      :     0.916024
      py      :     1.125835
      dz2     :     0.006925  d :     0.038998
      dxz     :     0.008723
      dyz     :     0.008064
      dx2y2   :     0.010564
      dxy     :     0.004722
  7 C s       :     3.196035  s :     3.196035
      pz      :     0.974596  p :     2.990543
      px      :     0.925081
      py      :     1.090867
      dz2     :     0.006687  d :     0.038885
      dxz     :     0.008828
      dyz     :     0.008184
      dx2y2   :     0.009722
      dxy     :     0.005465
  8 C s       :     3.326209  s :     3.326209
      pz      :     1.094006  p :     3.118876
      px      :     0.942209
      py      :     1.082660
      dz2     :     0.003981  d :     0.028269
      dxz     :     0.006888
      dyz     :     0.005013
      dx2y2   :     0.007504
      dxy     :     0.004884
  9 H s       :     0.831823  s :     0.831823
      pz      :     0.005092  p :     0.019466
      px      :     0.005300
      py      :     0.009073
 10 H s       :     0.835382  s :     0.835382
      pz      :     0.004227  p :     0.019408
      px      :     0.005343
      py      :     0.009838
 11 H s       :     0.833726  s :     0.833726
      pz      :     0.004536  p :     0.019467
      px      :     0.011664
      py      :     0.003267
 12 H s       :     0.835384  s :     0.835384
      pz      :     0.004996  p :     0.019409
      px      :     0.005311
      py      :     0.009101
 13 H s       :     0.831862  s :     0.831862
      pz      :     0.004304  p :     0.019465
      px      :     0.005332
      py      :     0.009830
 14 H s       :     0.832083  s :     0.832083
      pz      :     0.007497  p :     0.017764
      px      :     0.003833
      py      :     0.006434
 15 H s       :     0.832005  s :     0.832005
      pz      :     0.004305  p :     0.017764
      px      :     0.003845
      py      :     0.009614
 16 H s       :     0.836330  s :     0.836330
      pz      :     0.007410  p :     0.017752
      px      :     0.003898
      py      :     0.006443
 17 H s       :     0.836319  s :     0.836319
      pz      :     0.004258  p :     0.017750
      px      :     0.003910
      py      :     0.009582
 18 H s       :     0.838303  s :     0.838303
      pz      :     0.007281  p :     0.018192
      px      :     0.004207
      py      :     0.006704
 19 H s       :     0.838331  s :     0.838331
      pz      :     0.004386  p :     0.018192
      px      :     0.004220
      py      :     0.009587
 20 H s       :     0.833518  s :     0.833518
      pz      :     0.008647  p :     0.018260
      px      :     0.005536
      py      :     0.004077


                     *******************************
                     * LOEWDIN POPULATION ANALYSIS *
                     *******************************

----------------------
LOEWDIN ATOMIC CHARGES
----------------------
   0 C :   -0.091260
   1 C :   -0.164332
   2 C :   -0.162492
   3 C :   -0.175074
   4 C :   -0.162488
   5 C :   -0.164309
   6 C :   -0.282137
   7 C :   -0.299384
   8 C :   -0.425174
   9 H :    0.168742
  10 H :    0.166607
  11 H :    0.166443
  12 H :    0.166607
  13 H :    0.168741
  14 H :    0.163690
  15 H :    0.163721
  16 H :    0.155426
  17 H :    0.155447
  18 H :    0.149740
  19 H :    0.149737
  20 H :    0.151747

-------------------------------
LOEWDIN REDUCED ORBITAL CHARGES
-------------------------------
  0 C s       :     2.867121  s :     2.867121
      pz      :     0.957972  p :     3.123917
      px      :     1.059900
      py      :     1.106044
      dz2     :     0.008128  d :     0.100223
      dxz     :     0.012370
      dyz     :     0.013928
      dx2y2   :     0.032929
      dxy     :     0.032868
  1 C s       :     2.896726  s :     2.896726
      pz      :     1.007725  p :     3.184609
      px      :     1.090911
      py      :     1.085974
      dz2     :     0.005626  d :     0.082997
      dxz     :     0.011662
      dyz     :     0.008175
      dx2y2   :     0.027167
      dxy     :     0.030368
  2 C s       :     2.903348  s :     2.903348
      pz      :     0.986381  p :     3.175550
      px      :     1.094739
      py      :     1.094430
      dz2     :     0.007280  d :     0.083593
      dxz     :     0.012624
      dyz     :     0.007277
      dx2y2   :     0.027059
      dxy     :     0.029353
  3 C s       :     2.903117  s :     2.903117
      pz      :     0.999572  p :     3.189071
      px      :     1.096832
      py      :     1.092666
      dz2     :     0.006616  d :     0.082886
      dxz     :     0.005988
      dyz     :     0.013549
      dx2y2   :     0.030488
      dxy     :     0.026245
  4 C s       :     2.903343  s :     2.903343
      pz      :     0.986221  p :     3.175551
      px      :     1.094740
      py      :     1.094590
      dz2     :     0.005552  d :     0.083594
      dxz     :     0.012252
      dyz     :     0.008514
      dx2y2   :     0.027553
      dxy     :     0.029722
  5 C s       :     2.896718  s :     2.896718
      pz      :     1.005514  p :     3.184594
      px      :     1.090981
      py      :     1.088099
      dz2     :     0.007116  d :     0.082996
      dxz     :     0.012150
      dyz     :     0.007109
      dx2y2   :     0.026730
      dxy     :     0.029890
  6 C s       :     2.922953  s :     2.922953
      pz      :     1.094976  p :     3.277654
      px      :     1.041183
      py      :     1.141495
      dz2     :     0.013957  d :     0.081529
      dxz     :     0.017747
      dyz     :     0.017733
      dx2y2   :     0.022679
      dxy     :     0.009412
  7 C s       :     2.938937  s :     2.938937
      pz      :     1.086083  p :     3.278939
      px      :     1.050242
      py      :     1.142614
      dz2     :     0.013913  d :     0.081508
      dxz     :     0.017748
      dyz     :     0.018003
      dx2y2   :     0.021672
      dxy     :     0.010173
  8 C s       :     2.973990  s :     2.973990
      pz      :     1.154442  p :     3.386869
      px      :     1.077215
      py      :     1.155212
      dz2     :     0.009511  d :     0.064315
      dxz     :     0.014851
      dyz     :     0.012542
      dx2y2   :     0.017524
      dxy     :     0.009886
  9 H s       :     0.786699  s :     0.786699
      pz      :     0.011256  p :     0.044559
      px      :     0.012063
      py      :     0.021240
 10 H s       :     0.788985  s :     0.788985
      pz      :     0.009059  p :     0.044408
      px      :     0.012226
      py      :     0.023123
 11 H s       :     0.788926  s :     0.788926
      pz      :     0.009850  p :     0.044631
      px      :     0.027558
      py      :     0.007224
 12 H s       :     0.788984  s :     0.788984
      pz      :     0.010922  p :     0.044409
      px      :     0.012149
      py      :     0.021338
 13 H s       :     0.786701  s :     0.786701
      pz      :     0.009293  p :     0.044558
      px      :     0.012140
      py      :     0.023125
 14 H s       :     0.793288  s :     0.793288
      pz      :     0.018275  p :     0.043022
      px      :     0.008691
      py      :     0.016055
 15 H s       :     0.793255  s :     0.793255
      pz      :     0.010066  p :     0.043023
      px      :     0.008721
      py      :     0.024237
 16 H s       :     0.801440  s :     0.801440
      pz      :     0.018103  p :     0.043133
      px      :     0.009068
      py      :     0.015962
 17 H s       :     0.801420  s :     0.801420
      pz      :     0.009946  p :     0.043133
      px      :     0.009098
      py      :     0.024089
 18 H s       :     0.806987  s :     0.806987
      pz      :     0.017655  p :     0.043273
      px      :     0.009429
      py      :     0.016188
 19 H s       :     0.806991  s :     0.806991
      pz      :     0.009823  p :     0.043272
      px      :     0.009461
      py      :     0.023988
 20 H s       :     0.804768  s :     0.804768
      pz      :     0.021531  p :     0.043485
      px      :     0.012938
      py      :     0.009015


                      *****************************
                      * MAYER POPULATION ANALYSIS *
                      *****************************

  NA   - Mulliken gross atomic population
  ZA   - Total nuclear charge
  QA   - Mulliken gross atomic charge
  VA   - Mayer's total valence
  BVA  - Mayer's bonded valence
  FA   - Mayer's free valence

  ATOM       NA         ZA         QA         VA         BVA        FA
  0 C      5.7693     6.0000     0.2307     3.3881     3.3881     0.0000
  1 C      6.2252     6.0000    -0.2252     3.9275     3.9275     0.0000
  2 C      6.1620     6.0000    -0.1620     3.8652     3.8652     0.0000
  3 C      6.1481     6.0000    -0.1481     3.8393     3.8393    -0.0000
  4 C      6.1620     6.0000    -0.1620     3.8651     3.8651     0.0000
  5 C      6.2252     6.0000    -0.2252     3.9278     3.9278     0.0000
  6 C      6.3715     6.0000    -0.3715     3.7524     3.7524    -0.0000
  7 C      6.2255     6.0000    -0.2255     3.6366     3.6366     0.0000
  8 C      6.4734     6.0000    -0.4734     3.8154     3.8154     0.0000
  9 H      0.8513     1.0000     0.1487     0.9694     0.9694     0.0000
 10 H      0.8548     1.0000     0.1452     0.9695     0.9695    -0.0000
 11 H      0.8532     1.0000     0.1468     0.9689     0.9689    -0.0000
 12 H      0.8548     1.0000     0.1452     0.9695     0.9695     0.0000
 13 H      0.8513     1.0000     0.1487     0.9694     0.9694    -0.0000
 14 H      0.8498     1.0000     0.1502     0.9649     0.9649    -0.0000
 15 H      0.8498     1.0000     0.1502     0.9649     0.9649    -0.0000
 16 H      0.8541     1.0000     0.1459     0.9638     0.9638    -0.0000
 17 H      0.8541     1.0000     0.1459     0.9638     0.9638    -0.0000
 18 H      0.8565     1.0000     0.1435     0.9648     0.9648    -0.0000
 19 H      0.8565     1.0000     0.1435     0.9648     0.9648     0.0000
 20 H      0.8518     1.0000     0.1482     0.9625     0.9625    -0.0000

  Mayer bond orders larger than 0.100000
B(  0-C ,  1-C ) :   1.4061 B(  0-C ,  5-C ) :   1.4059 B(  0-C ,  6-C ) :   0.7768 
B(  1-C ,  2-C ) :   1.4505 B(  1-C ,  9-H ) :   0.9460 B(  2-C ,  3-C ) :   1.4327 
B(  2-C , 10-H ) :   0.9476 B(  3-C ,  4-C ) :   1.4326 B(  3-C , 11-H ) :   0.9476 
B(  4-C ,  5-C ) :   1.4506 B(  4-C , 12-H ) :   0.9476 B(  5-C , 13-H ) :   0.9461 
B(  6-C ,  7-C ) :   0.9275 B(  6-C , 14-H ) :   1.0059 B(  6-C , 15-H ) :   1.0058 
B(  7-C ,  8-C ) :   0.8981 B(  7-C , 16-H ) :   0.9688 B(  7-C , 17-H ) :   0.9687 
B(  8-C , 18-H ) :   0.9851 B(  8-C , 19-H ) :   0.9850 B(  8-C , 20-H ) :   0.9739 


-------
TIMINGS
-------

Total SCF time: 0 days 0 hours 0 min 19 sec 

Total time                  ....      19.028 sec
Sum of individual times     ....      18.889 sec  ( 99.3%)

Fock matrix formation       ....      17.922 sec  ( 94.2%)
  Split-RI-J                ....       1.658 sec  (  9.3% of F)
  XC integration            ....      16.282 sec  ( 90.8% of F)
    Basis function eval.    ....       2.221 sec  ( 13.6% of XC)
    Density eval.           ....       5.385 sec  ( 33.1% of XC)
    XC-Functional eval.     ....       1.311 sec  (  8.1% of XC)
    XC-Potential eval.      ....       7.188 sec  ( 44.1% of XC)
Diagonalization             ....       0.033 sec  (  0.2%)
Density matrix formation    ....       0.003 sec  (  0.0%)
Population analysis         ....       0.006 sec  (  0.0%)
Initial guess               ....       0.277 sec  (  1.5%)
Orbital Transformation      ....       0.000 sec  (  0.0%)
Orbital Orthonormalization  ....       0.000 sec  (  0.0%)
DIIS solution               ....       0.010 sec  (  0.1%)
SOSCF solution              ....       0.024 sec  (  0.1%)
Grid generation             ....       0.615 sec  (  3.2%)

Maximum memory used throughout the entire SCF-calculation: 62.1 MB


-------------------------------------------------------------------------------
                          DFT DISPERSION CORRECTION                            
                                                                               
                                 DFTD4 V2.5                                    
-------------------------------------------------------------------------------
The R2SCAN3C composite method is recognized
Using three-body term ABC
Active option DFTDOPT                   ...         5   

Starting D4
-------------------------   ----------------
Dispersion correction           -0.006659079
-------------------------   ----------------

ERROR: Number of atoms in ORCA and otool_gcp are different: 
ORCA: 21  gCP: 0 
NOTIFICATION: Different basis set in ORCA and otool_gcp:
ORCA: 231  gCP: 17 
If you are NOT using ECPs, check your basis set inputs!
------------------   -----------------
gCP correction             0.000000000
------------------   -----------------

-------------------------   --------------------
FINAL SINGLE POINT ENERGY      -350.094107722965
-------------------------   --------------------

------------------------------------------------------------------------------
                         ORCA SCF GRADIENT CALCULATION
------------------------------------------------------------------------------

Gradient of the Kohn-Sham DFT energy:
Kohn-Sham wavefunction type      ... RKS
Hartree-Fock exchange scaling    ...    0.000
Number of operators              ...    1
Number of atoms                  ...   21
Basis set dimensions             ...  231
Integral neglect threshold       ... 2.5e-11
Integral primitive cutoff        ... 2.5e-12
SHARK Integral package           ... ON

Nuc. rep. gradient       (SHARK) ... done (  0.0 sec)
HCore & Overlap gradient (SHARK) ... done (  0.1 sec)
RI-J gradient            (SHARK) ... done (  0.6 sec)
Exchange-correlation gradient    ... done
Dispersion correction            ... Starting D4


------------------- 
Dispersion Gradient 
------------------- 
   1  :   -0.000017815    0.000006423   -0.000024515
   2  :   -0.000046843   -0.000068178   -0.000034991
   3  :   -0.000088584   -0.000063155   -0.000010589
   4  :   -0.000096451   -0.000003211    0.000012958
   5  :   -0.000088371    0.000060526    0.000021918
   6  :   -0.000046550    0.000076666    0.000003092
   7  :    0.000065941    0.000010107   -0.000039199
   8  :    0.000089050   -0.000009313    0.000035179
   9  :    0.000096677   -0.000004628    0.000017009
  10  :   -0.000009994   -0.000046721   -0.000021732
  11  :   -0.000027935   -0.000034828   -0.000004461
  12  :   -0.000037767   -0.000002008    0.000007952
  13  :   -0.000027809    0.000032636    0.000013274
  14  :   -0.000009806    0.000051377    0.000004052
  15  :    0.000027191   -0.000009801   -0.000028286
  16  :    0.000027250    0.000022280   -0.000019931
  17  :    0.000040702    0.000006833    0.000027700
  18  :    0.000040683   -0.000019642    0.000020835
  19  :    0.000037014   -0.000008274    0.000000416
  20  :    0.000037045    0.000006882    0.000004350
  21  :    0.000030974   -0.000004320    0.000016336

  |G| =    0.001907037

done
gCP correction                   ... done

------------------
CARTESIAN GRADIENT
------------------

   1   C   :   -0.004429777   -0.001049277    0.004114234
   2   C   :   -0.000681541    0.001529086    0.000658220
   3   C   :    0.001755850    0.002950930   -0.000162235
   4   C   :    0.003792722    0.000212500   -0.000781387
   5   C   :    0.001753342   -0.002510810   -0.001580703
   6   C   :   -0.000679776   -0.001653849   -0.000135365
   7   C   :    0.002979477    0.001696522   -0.006681156
   8   C   :   -0.004980999   -0.001209411    0.004758861
   9   C   :    0.004886752    0.000760672   -0.003112534
  10   H   :   -0.002134576    0.003814161    0.001343878
  11   H   :    0.002315973    0.003597150    0.000173781
  12   H   :    0.004366095    0.000287618   -0.001134399
  13   H   :    0.002300959   -0.003247618   -0.001629643
  14   H   :   -0.002137514   -0.003963433   -0.000725040
  15   H   :   -0.000933897    0.000819853    0.002383767
  16   H   :   -0.000949288   -0.001875686    0.001731634
  17   H   :    0.002335986   -0.000352958   -0.003017629
  18   H   :    0.002354171    0.001775767   -0.002475427
  19   H   :   -0.002055945    0.002464421    0.002500918
  20   H   :   -0.002049694   -0.003346270    0.001011272
  21   H   :   -0.003246938    0.000746559   -0.002825279

Difference to translation invariance:
           :    0.0045613828    0.0014459252   -0.0055842315

Difference to rotation invariance:
           :    0.0001838868    0.0130389227    0.0033191067

Norm of the cartesian gradient     ...    0.0204325094
RMS gradient                       ...    0.0025742542
MAX gradient                       ...    0.0066811562

-------
TIMINGS
-------

Total SCF gradient time            ...        5.220 sec

One electron gradient       ....       0.141 sec  (  2.7%)
RI-J Coulomb gradient       ....       0.590 sec  ( 11.3%)
XC gradient                 ....       4.414 sec  ( 84.5%)

Maximum memory used throughout the entire SCFGRAD-calculation: 56.2 MB
------------------------------------------------------------------------------
                         ORCA GEOMETRY RELAXATION STEP
------------------------------------------------------------------------------

Reading the OPT-File                    .... done
Getting information on internals        .... done
Copying old internal coords+grads       .... done
Making the new internal coordinates     .... (new redundants).... done
Validating the new internal coordinates .... (new redundants).... done
Calculating the B-matrix                .... done
Calculating the G,G- and P matrices     .... done
Transforming gradient to internals      .... done
Projecting the internal gradient        .... done
Number of atoms                         ....  21
Number of internal coordinates          .... 105
Current Energy                          ....  -350.094107723 Eh
Current gradient norm                   ....     0.020432509 Eh/bohr
Maximum allowed component of the step   ....  0.300
Current trust radius                    ....  0.300
Evaluating the initial hessian          ....  (Almloef) done
Projecting the Hessian                  .... done
Forming the augmented Hessian           .... done
Diagonalizing the augmented Hessian     .... done
Last element of RFO vector              ....  0.996232356
Lowest eigenvalues of augmented Hessian:
 -0.001404056  0.010884265  0.011692377  0.012759174  0.021477098
Length of the computed step             ....  0.087052216
The final length of the internal step   ....  0.087052216
Converting the step to cartesian space:
 Initial RMS(Int)=    0.0084954264
Transforming coordinates:
 Iter   0:  RMS(Cart)=    0.0202535938 RMS(Int)=    1.7327759024
 Iter   1:  RMS(Cart)=    0.0001815630 RMS(Int)=    0.0000638114
 Iter   2:  RMS(Cart)=    0.0000017495 RMS(Int)=    0.0000008572
 Iter   3:  RMS(Cart)=    0.0000000321 RMS(Int)=    0.0000000123
done
Storing new coordinates                 .... done

                                .--------------------.
          ----------------------|Geometry convergence|-------------------------
          Item                value                   Tolerance       Converged
          ---------------------------------------------------------------------
          RMS gradient        0.0023656891            0.0001000000      NO
          MAX gradient        0.0077535258            0.0003000000      NO
          RMS step            0.0084954264            0.0020000000      NO
          MAX step            0.0294199841            0.0040000000      NO
          ........................................................
          Max(Bonds)      0.0067      Max(Angles)    0.72
          Max(Dihed)        1.69      Max(Improp)    0.00
          ---------------------------------------------------------------------

The optimization has not yet converged - more geometry cycles are needed


    ---------------------------------------------------------------------------
                         Redundant Internal Coordinates
                            (Angstroem and degrees)

        Definition                    Value    dE/dq     Step     New-Value
    ----------------------------------------------------------------------------
     1. B(C   1,C   0)                1.3890 -0.007293  0.0061    1.3952   
     2. B(C   2,C   1)                1.3834 -0.007753  0.0064    1.3898   
     3. B(C   3,C   2)                1.3843 -0.007274  0.0060    1.3903   
     4. B(C   4,C   3)                1.3843 -0.007283  0.0060    1.3903   
     5. B(C   5,C   0)                1.3891 -0.007310  0.0062    1.3952   
     6. B(C   5,C   4)                1.3834 -0.007754  0.0064    1.3898   
     7. B(C   6,C   0)                1.5012 -0.003369  0.0043    1.5055   
     8. B(C   7,C   6)                1.5334 -0.002903  0.0041    1.5376   
     9. B(C   8,C   7)                1.5231 -0.003183  0.0044    1.5275   
    10. B(H   9,C   1)                1.0811 -0.004695  0.0067    1.0878   
    11. B(H  10,C   2)                1.0806 -0.004135  0.0058    1.0864   
    12. B(H  11,C   3)                1.0802 -0.004261  0.0060    1.0862   
    13. B(H  12,C   4)                1.0806 -0.004155  0.0059    1.0864   
    14. B(H  13,C   5)                1.0811 -0.004683  0.0066    1.0878   
    15. B(H  14,C   6)                1.0922 -0.002686  0.0040    1.0962   
    16. B(H  15,C   6)                1.0922 -0.002706  0.0040    1.0962   
    17. B(H  16,C   7)                1.0923 -0.002754  0.0041    1.0964   
    18. B(H  17,C   7)                1.0923 -0.002768  0.0041    1.0964   
    19. B(H  18,C   8)                1.0880 -0.004195  0.0061    1.0941   
    20. B(H  19,C   8)                1.0880 -0.004181  0.0061    1.0941   
    21. B(H  20,C   8)                1.0876 -0.003930  0.0057    1.0933   
    22. A(C   1,C   0,C   6)          120.65 -0.000349    0.03    120.68   
    23. A(C   1,C   0,C   5)          118.67  0.000752   -0.11    118.56   
    24. A(C   5,C   0,C   6)          120.64 -0.000386    0.04    120.68   
    25. A(C   2,C   1,H   9)          119.80  0.000138   -0.02    119.79   
    26. A(C   0,C   1,H   9)          119.45  0.000327   -0.05    119.40   
    27. A(C   0,C   1,C   2)          120.74 -0.000466    0.07    120.81   
    28. A(C   3,C   2,H  10)          120.02  0.000178   -0.03    120.00   
    29. A(C   1,C   2,H  10)          119.88 -0.000068    0.01    119.89   
    30. A(C   1,C   2,C   3)          120.10 -0.000110    0.02    120.12   
    31. A(C   2,C   3,C   4)          119.65  0.000392   -0.05    119.59   
[...]
     14       0.000023  -0.000003  -0.000024  -0.000012  -0.010297  -0.004647
     15      -0.000172   0.000933   0.000407  -0.000007   0.029101   0.022256
     16      -0.000407   0.001430   0.000765  -0.000091   0.053811   0.039024
     17       0.000054   0.000019   0.000063  -0.000044   0.007549   0.005228
     18       0.000189  -0.000262   0.000021  -0.000590   0.000431  -0.000106
     19       0.049461  -0.074807  -0.014646  -0.000590   0.000496   0.002175
     20       0.012542  -0.019042  -0.003809   0.000193  -0.000496   0.000733
     21      -0.000357  -0.000202   0.000073  -0.002759  -0.000197   0.000032
     22      -0.072589  -0.043774  -0.031960  -0.003104   0.000219   0.001130
     23      -0.018381  -0.011117  -0.008624   0.005785   0.000156   0.000294
     24       0.000060   0.000279  -0.001429   0.017674  -0.000023   0.000006
     25       0.018085   0.029040  -0.081470  -0.027804   0.000069   0.000490
     26       0.004802   0.008011  -0.026570   0.086221   0.000127   0.000112
     27      -0.002559   0.010601   0.005596   0.001000  -0.216979   0.368941
     28       0.002223  -0.013189  -0.007936  -0.001853   0.368459  -0.622242
     29       0.002144  -0.006492  -0.003283  -0.000671   0.147929  -0.250099
     30      -0.000308   0.001561   0.000815  -0.000289  -0.137187   0.150471
     31      -0.000687   0.002823   0.001222  -0.000687  -0.247237   0.272507
     32      -0.000024   0.000292   0.000160  -0.000056  -0.032785   0.036341
     33      -0.000016   0.000034   0.000026  -0.000282   0.204307  -0.041001
     34      -0.000123   0.000386   0.000064  -0.000043   0.011706  -0.002355
     35      -0.000031   0.000100   0.000006   0.000168  -0.046377   0.009317
     36       0.000257  -0.001485  -0.000754  -0.000355  -0.182901  -0.082588
     37      -0.000527   0.002506   0.001039   0.000716   0.312639   0.142225
     38      -0.000286   0.001111   0.000422   0.000326   0.126718   0.057484
     39       0.001969  -0.009974  -0.005578   0.000543  -0.348386  -0.255947
     40       0.001961  -0.013423  -0.008415   0.001237  -0.622198  -0.454338
     41      -0.000911  -0.000676  -0.001056   0.000237  -0.084668  -0.061655
     42       0.101668  -0.146747  -0.026729   0.000055  -0.003296   0.006560
     43      -0.247591   0.367426   0.072869  -0.004408   0.001978  -0.012051
     44      -0.278844   0.413998   0.084653  -0.005751   0.003800  -0.013676
     45      -0.103930   0.149742   0.026827   0.001863  -0.005135  -0.004619
     46      -0.355427   0.526358   0.103063   0.013949  -0.008389  -0.013893
     47       0.125762  -0.186459  -0.038268  -0.005707   0.004028   0.004528
     48      -0.153155  -0.087211  -0.067344   0.013413   0.000389   0.001720
     49       0.358497   0.211931   0.157181  -0.031361  -0.001180  -0.005500
     50       0.409597   0.242923   0.176782  -0.034647  -0.002130  -0.006740
     51       0.157298   0.089488   0.066410   0.020049  -0.000356  -0.001650
     52       0.517064   0.305349   0.216298   0.064855  -0.001388  -0.007768
     53      -0.187710  -0.111453  -0.076722  -0.022516   0.000107   0.003334
     54       0.040239   0.061153  -0.190076   0.093331   0.000580   0.001394
     55      -0.094054  -0.147711   0.433382  -0.221859  -0.001148  -0.002557
     56      -0.103868  -0.162855   0.474335  -0.211101  -0.001208  -0.002853
     57      -0.040280  -0.061224   0.180531   0.118382   0.000008  -0.001502
     58      -0.130528  -0.205098   0.569180   0.370831   0.000109  -0.003882
     59       0.045353   0.071191  -0.197225  -0.104395   0.000012   0.001355
     60      -0.000621  -0.003075   0.026211  -0.417937  -0.000741   0.000113
     61       0.004977   0.010184  -0.028687   0.183140   0.000264   0.000018
     62       0.000181  -0.003005   0.040459  -0.714509  -0.000968   0.000153
                 60         61         62    
      0       0.001845  -0.000032   0.000966
      1       0.000091  -0.001935   0.000049
      2      -0.000403  -0.000506  -0.000252
      3       0.014727  -0.012794   0.008161
      4      -0.024539   0.017633  -0.010425
      5      -0.009928   0.007648  -0.004668
      6      -0.017906   0.029487  -0.019439
      7      -0.027507   0.050281  -0.038226
      8      -0.002989   0.006297  -0.005486
      9       0.056154   0.000254  -0.061445
     10       0.003189  -0.003717  -0.003541
     11      -0.012738  -0.001044   0.013880
     12      -0.018076  -0.028689  -0.019769
     13       0.025966   0.046035   0.036916
     14       0.011238   0.019068   0.014522
     15       0.015006   0.012551   0.008370
     16       0.026378   0.018498   0.011528
     17       0.003507   0.001996   0.001112
     18       0.000201  -0.000012   0.000185
     19       0.000052   0.000590   0.000034
     20      -0.000417   0.000172  -0.000182
     21      -0.000184  -0.000003  -0.000050
     22      -0.000045   0.000249  -0.000019
     23       0.000204   0.000070   0.000088
     24       0.000015  -0.000002   0.000072
     25      -0.000022   0.000138  -0.000026
     26       0.000070   0.000035   0.000096
     27      -0.163585   0.123211  -0.073055
     28       0.275287  -0.202398   0.118339
     29       0.110805  -0.082046   0.048278
     30       0.189198  -0.325016   0.228018
     31       0.331070  -0.576012   0.411345
     32       0.042637  -0.075115   0.054619
     33      -0.661339  -0.002723   0.679627
     34      -0.037812   0.004948   0.038945
     35       0.149762   0.001954  -0.153963
     36       0.190913   0.316024   0.231935
     37      -0.315558  -0.529503  -0.396052
     38      -0.129345  -0.216093  -0.160582
     39      -0.166348  -0.120698  -0.074860
     40      -0.295381  -0.209536  -0.128359
     41      -0.039972  -0.027820  -0.016740
     42      -0.003031   0.000854  -0.001501
     43       0.002621  -0.002348   0.001639
     44       0.003975  -0.002504   0.001954
     45      -0.002800  -0.000725  -0.001427
     46      -0.003443  -0.002911  -0.002133
     47       0.001950   0.000915   0.000837
     48       0.000316   0.000350   0.000178
     49      -0.000686  -0.001241  -0.000328
     50      -0.001138  -0.001570  -0.000453
     51       0.000286  -0.000325   0.000164
     52       0.001030  -0.001706   0.000449
     53      -0.000632   0.000727  -0.000224
     54       0.000150   0.000414   0.000115
     55      -0.000291  -0.000748  -0.000142
     56      -0.000251  -0.000839  -0.000077
     57       0.000160  -0.000418   0.000119
     58       0.000397  -0.001045   0.000170
     59      -0.000090   0.000370   0.000001
     60      -0.000954   0.000004  -0.000919
     61       0.000300   0.000026   0.000343
     62      -0.001175   0.000011  -0.001333


-----------
IR SPECTRUM
-----------

 Mode   freq       eps      Int      T**2         TX        TY        TZ
       cm**-1   L/(mol*cm) km/mol    a.u.
----------------------------------------------------------------------------
  6:     13.76   0.000004    0.02  0.000095  (-0.000206 -0.009531 -0.001908)
  7:     70.84   0.000001    0.01  0.000006  ( 0.000021  0.002320  0.000659)
  8:     96.99   0.000080    0.41  0.000259  ( 0.003332 -0.003949  0.015237)
  9:    231.71   0.000001    0.01  0.000002  (-0.000105  0.001283  0.000305)
 10:    276.57   0.000137    0.69  0.000155  ( 0.001680 -0.003189  0.011906)
 11:    314.28   0.000005    0.02  0.000005  (-0.002028 -0.000217  0.000717)
 12:    352.24   0.000014    0.07  0.000012  ( 0.000099  0.003387  0.000831)
 13:    407.53   0.000000    0.00  0.000000  (-0.000004 -0.000470 -0.000372)
 14:    506.09   0.002209   11.16  0.001362  ( 0.011972 -0.008982  0.033732)
 15:    597.57   0.001057    5.34  0.000552  (-0.007094 -0.005710  0.021653)
 16:    637.98   0.000012    0.06  0.000006  (-0.000012 -0.002311 -0.000645)
 17:    709.26   0.010048   50.78  0.004421  (-0.014680  0.016658 -0.062674)
 18:    744.82   0.000335    1.69  0.000140  (-0.000138 -0.011418 -0.003169)
 19:    758.86   0.006032   30.48  0.002480  ( 0.015698 -0.012185  0.045667)
 20:    828.02   0.000101    0.51  0.000038  (-0.000445 -0.001593  0.005941)
 21:    848.76   0.000002    0.01  0.000001  ( 0.000027 -0.000747 -0.000302)
 22:    874.86   0.000205    1.04  0.000073  ( 0.000026  0.008292  0.002117)
 23:    897.14   0.000428    2.16  0.000149  ( 0.003442 -0.002985  0.011319)
 24:    919.51   0.000040    0.20  0.000013  ( 0.000391 -0.000958  0.003515)
 25:    968.77   0.000010    0.05  0.000003  (-0.000075 -0.001707 -0.000573)
 26:    987.98   0.000002    0.01  0.000001  ( 0.000274 -0.000215  0.000767)
 27:   1024.97   0.000002    0.01  0.000001  (-0.000753 -0.000130  0.000172)
 28:   1051.23   0.000076    0.38  0.000023  (-0.002683 -0.000945  0.003806)
 29:   1054.73   0.001003    5.07  0.000297  (-0.017194 -0.000219  0.001105)
 30:   1066.65   0.000299    1.51  0.000088  (-0.000172  0.009049  0.002383)
 31:   1108.66   0.002155   10.89  0.000607  ( 0.022866 -0.002418  0.008822)
 32:   1122.72   0.001265    6.39  0.000352  (-0.000229 -0.018130 -0.004770)
 33:   1185.69   0.000008    0.04  0.000002  ( 0.000054  0.001384  0.000329)
 34:   1204.85   0.000064    0.32  0.000017  (-0.003470 -0.000512  0.002052)
 35:   1228.95   0.000116    0.59  0.000029  (-0.005275  0.000337 -0.001226)
 36:   1242.67   0.000026    0.13  0.000006  ( 0.000123  0.002455  0.000610)
 37:   1301.43   0.000033    0.17  0.000008  ( 0.002017  0.000570 -0.001864)
 38:   1317.11   0.000081    0.41  0.000019  (-0.000015 -0.004240 -0.001060)
 39:   1355.50   0.000078    0.40  0.000018  (-0.000051 -0.004096 -0.001113)
 40:   1361.94   0.000037    0.19  0.000009  ( 0.000067  0.002801  0.000807)
 41:   1366.94   0.000415    2.10  0.000095  (-0.008932  0.001050 -0.003731)
 42:   1400.64   0.000690    3.49  0.000154  ( 0.011464  0.001129 -0.004598)
 43:   1475.60   0.000045    0.23  0.000009  (-0.001072  0.000861 -0.002747)
 44:   1482.78   0.001864    9.42  0.000392  ( 0.000125  0.019161  0.005021)
 45:   1485.43   0.000097    0.49  0.000020  (-0.004147 -0.000241  0.001795)
 46:   1490.57   0.001313    6.64  0.000275  (-0.000096  0.016020  0.004278)
 47:   1498.79   0.002329   11.77  0.000485  (-0.002682 -0.005534  0.021143)
 48:   1525.14   0.002927   14.79  0.000599  ( 0.024387  0.000529 -0.001997)
 49:   1623.89   0.000262    1.32  0.000050  ( 0.000040 -0.006860 -0.001813)
 50:   1643.55   0.001832    9.26  0.000348  ( 0.018650 -0.000070  0.000288)
 51:   3010.30   0.000085    0.43  0.000009  (-0.002593 -0.000318  0.001402)
 52:   3017.34   0.002825   14.28  0.000292  (-0.015604  0.001733 -0.006762)
 53:   3022.21   0.012619   63.77  0.001303  ( 0.026327  0.005921 -0.023976)
 54:   3050.72   0.000016    0.08  0.000002  ( 0.000021 -0.001276 -0.000236)
 55:   3074.65   0.002420   12.23  0.000246  ( 0.000039 -0.015232 -0.003686)
 56:   3101.68   0.007389   37.34  0.000743  (-0.000343 -0.026055 -0.008029)
 57:   3108.92   0.004695   23.73  0.000471  ( 0.005420 -0.006620  0.019952)
 58:   3151.96   0.001660    8.39  0.000164  ( 0.012376  0.002658 -0.002040)
 59:   3152.21   0.000998    5.04  0.000099  (-0.002675  0.009109  0.002940)
 60:   3166.38   0.000603    3.05  0.000059  ( 0.007393  0.000560 -0.002122)
 61:   3175.05   0.004429   22.38  0.000435  ( 0.000084  0.020178  0.005309)
 62:   3187.00   0.002222   11.23  0.000218  (-0.014524 -0.000437  0.002535)

* The epsilon (eps) is given for a Dirac delta lineshape.
** The dipole moment derivative (T) already includes vibrational overlap.

The first frequency considered to be a vibration is 6
The total number of vibrations considered is 57


--------------------------
THERMOCHEMISTRY AT 298.15K
--------------------------

Temperature         ... 298.15 K
Pressure            ... 1.00 atm
Total Mass          ... 120.19 AMU

Throughout the following assumptions are being made:
  (1) The electronic state is orbitally nondegenerate
  (2) There are no thermally accessible electronically excited states
  (3) Hindered rotations indicated by low frequency modes are not
      treated as such but are treated as vibrations and this may
      cause some error
  (4) All equations used are the standard statistical mechanics
      equations for an ideal gas
  (5) All vibrations are strictly harmonic

freq.      13.76  E(vib)   ...       0.57 
freq.      70.84  E(vib)   ...       0.50 
freq.      96.99  E(vib)   ...       0.46 
freq.     231.71  E(vib)   ...       0.32 
freq.     276.57  E(vib)   ...       0.28 
freq.     314.28  E(vib)   ...       0.25 
freq.     352.24  E(vib)   ...       0.23 
freq.     407.53  E(vib)   ...       0.19 
freq.     506.09  E(vib)   ...       0.14 
freq.     597.57  E(vib)   ...       0.10 
freq.     637.98  E(vib)   ...       0.09 
freq.     709.26  E(vib)   ...       0.07 
freq.     744.82  E(vib)   ...       0.06 
freq.     758.86  E(vib)   ...       0.06 
freq.     828.02  E(vib)   ...       0.04 
freq.     848.76  E(vib)   ...       0.04 
freq.     874.86  E(vib)   ...       0.04 
freq.     897.14  E(vib)   ...       0.03 
freq.     919.51  E(vib)   ...       0.03 
freq.     968.77  E(vib)   ...       0.03 
freq.     987.98  E(vib)   ...       0.02 
freq.    1024.97  E(vib)   ...       0.02 
freq.    1051.23  E(vib)   ...       0.02 
freq.    1054.73  E(vib)   ...       0.02 
freq.    1066.65  E(vib)   ...       0.02 
freq.    1108.66  E(vib)   ...       0.02 
freq.    1122.72  E(vib)   ...       0.01 
freq.    1185.69  E(vib)   ...       0.01 
freq.    1204.85  E(vib)   ...       0.01 
freq.    1228.95  E(vib)   ...       0.01 
freq.    1242.67  E(vib)   ...       0.01 
freq.    1301.43  E(vib)   ...       0.01 
freq.    1317.11  E(vib)   ...       0.01 
freq.    1355.50  E(vib)   ...       0.01 
freq.    1361.94  E(vib)   ...       0.01 
freq.    1366.94  E(vib)   ...       0.01 
freq.    1400.64  E(vib)   ...       0.00 
freq.    1475.60  E(vib)   ...       0.00 
freq.    1482.78  E(vib)   ...       0.00 
freq.    1485.43  E(vib)   ...       0.00 
freq.    1490.57  E(vib)   ...       0.00 
freq.    1498.79  E(vib)   ...       0.00 
freq.    1525.14  E(vib)   ...       0.00 
freq.    1623.89  E(vib)   ...       0.00 
freq.    1643.55  E(vib)   ...       0.00 
freq.    3010.30  E(vib)   ...       0.00 
freq.    3017.34  E(vib)   ...       0.00 
freq.    3022.21  E(vib)   ...       0.00 
freq.    3050.72  E(vib)   ...       0.00 
freq.    3074.65  E(vib)   ...       0.00 
freq.    3101.68  E(vib)   ...       0.00 
freq.    3108.92  E(vib)   ...       0.00 
freq.    3151.96  E(vib)   ...       0.00 
freq.    3152.21  E(vib)   ...       0.00 
freq.    3166.38  E(vib)   ...       0.00 
freq.    3175.05  E(vib)   ...       0.00 
freq.    3187.00  E(vib)   ...       0.00 

------------
INNER ENERGY
------------

The inner energy is: U= E(el) + E(ZPE) + E(vib) + E(rot) + E(trans)
    E(el)   - is the total energy from the electronic structure calculation
              = E(kin-el) + E(nuc-el) + E(el-el) + E(nuc-nuc)
    E(ZPE)  - the the zero temperature vibrational energy from the frequency calculation
    E(vib)  - the the finite temperature correction to E(ZPE) due to population
              of excited vibrational states
    E(rot)  - is the rotational thermal energy
    E(trans)- is the translational thermal energy

Summary of contributions to the inner energy U:
Electronic energy                ...   -350.09494082 Eh
Zero point energy                ...      0.18426370 Eh     115.63 kcal/mol
Thermal vibrational correction   ...      0.00599305 Eh       3.76 kcal/mol
Thermal rotational correction    ...      0.00141627 Eh       0.89 kcal/mol
Thermal translational correction ...      0.00141627 Eh       0.89 kcal/mol
-----------------------------------------------------------------------
Total thermal energy                   -349.90185153 Eh


Summary of corrections to the electronic energy:
(perhaps to be used in another calculation)
Total thermal correction                  0.00882559 Eh       5.54 kcal/mol
Non-thermal (ZPE) correction              0.18426370 Eh     115.63 kcal/mol
-----------------------------------------------------------------------
Total correction                          0.19308929 Eh     121.17 kcal/mol


--------
ENTHALPY
--------

The enthalpy is H = U + kB*T
                kB is Boltzmann's constant
Total free energy                 ...   -349.90185153 Eh 
Thermal Enthalpy correction       ...      0.00094421 Eh       0.59 kcal/mol
-----------------------------------------------------------------------
Total Enthalpy                    ...   -349.90090732 Eh


Note: Only C1 symmetry has been detected, increase convergence thresholds 
      if your molecule has a higher symmetry. Symmetry factor of 1.0 is   
      used for the rotational entropy correction. 
 

Note: Rotational entropy computed according to Herzberg 
Infrared and Raman Spectra, Chapter V,1, Van Nostrand Reinhold, 1945 
Point Group:  C1, Symmetry Number:   1  
Rotational constants in cm-1:     0.143766     0.028880     0.025871 

Vibrational entropy computed according to the QRRHO of S. Grimme
Chem.Eur.J. 2012 18 9955


-------
ENTROPY
-------

The entropy contributions are T*S = T*(S(el)+S(vib)+S(rot)+S(trans))
     S(el)   - electronic entropy
     S(vib)  - vibrational entropy
     S(rot)  - rotational entropy
     S(trans)- translational entropy
The entropies will be listed as multiplied by the temperature to get
units of energy

Electronic entropy                ...      0.00000000 Eh      0.00 kcal/mol
Vibrational entropy               ...      0.01061160 Eh      6.66 kcal/mol
Rotational entropy                ...      0.01382515 Eh      8.68 kcal/mol
Translational entropy             ...      0.01913176 Eh     12.01 kcal/mol
-----------------------------------------------------------------------
Final entropy term                ...      0.04356850 Eh     27.34 kcal/mol

In case the symmetry of your molecule has not been determined correctly
or in case you have a reason to use a different symmetry number we print 
out the resulting rotational entropy values for sn=1,12 :
 --------------------------------------------------------
|  sn= 1 | S(rot)=       0.01382515 Eh      8.68 kcal/mol|
|  sn= 2 | S(rot)=       0.01317069 Eh      8.26 kcal/mol|
|  sn= 3 | S(rot)=       0.01278786 Eh      8.02 kcal/mol|
|  sn= 4 | S(rot)=       0.01251623 Eh      7.85 kcal/mol|
|  sn= 5 | S(rot)=       0.01230555 Eh      7.72 kcal/mol|
|  sn= 6 | S(rot)=       0.01213340 Eh      7.61 kcal/mol|
|  sn= 7 | S(rot)=       0.01198785 Eh      7.52 kcal/mol|
|  sn= 8 | S(rot)=       0.01186178 Eh      7.44 kcal/mol|
|  sn= 9 | S(rot)=       0.01175057 Eh      7.37 kcal/mol|
|  sn=10 | S(rot)=       0.01165109 Eh      7.31 kcal/mol|
|  sn=11 | S(rot)=       0.01156110 Eh      7.25 kcal/mol|
|  sn=12 | S(rot)=       0.01147894 Eh      7.20 kcal/mol|
 --------------------------------------------------------


-------------------
GIBBS FREE ENERGY
-------------------

The Gibbs free energy is G = H - T*S

Total enthalpy                    ...   -349.90090732 Eh 
Total entropy correction          ...     -0.04356850 Eh    -27.34 kcal/mol
-----------------------------------------------------------------------
Final Gibbs free energy         ...   -349.94447582 Eh

For completeness - the Gibbs free energy minus the electronic energy
G-E(el)                           ...      0.15046499 Eh     94.42 kcal/mol


Timings for individual modules:

Sum of individual times         ...      603.905 sec (=  10.065 min)
GTO integral calculation        ...        0.832 sec (=   0.014 min)   0.1 %
SCF iterations                  ...       67.064 sec (=   1.118 min)  11.1 %
SCF Gradient evaluation         ...       26.435 sec (=   0.441 min)   4.4 %
Geometry relaxation             ...        0.438 sec (=   0.007 min)   0.1 %
Analytical frequency calculation...      509.135 sec (=   8.486 min)  84.3 %
                             ****ORCA TERMINATED NORMALLY****
TOTAL RUN TIME: 0 days 0 hours 10 minutes 4 seconds 685 msec
