 Entering Gaussian System, Link 0=g09
 Input=tbhp_030.gjf
 Output=tbhp_030.log
 Initial command:
 /sw/contrib/gaussian/g09/E01/g09/l1.exe "/scr/Gau-27106.inp" -scrdir="/scr/"
 Entering Link 1 = /sw/contrib/gaussian/g09/E01/g09/l1.exe PID=     27107.
  
 Copyright (c) 1988,1990,1992,1993,1995,1998,2003,2009,2015,
            Gaussian, Inc.  All Rights Reserved.
  
 This is part of the Gaussian(R) 09 program.  It is based on
 the Gaussian(R) 03 system (copyright 2003, Gaussian, Inc.),
 the Gaussian(R) 98 system (copyright 1998, Gaussian, Inc.),
 the Gaussian(R) 94 system (copyright 1995, Gaussian, Inc.),
 the Gaussian 92(TM) system (copyright 1992, Gaussian, Inc.),
 the Gaussian 90(TM) system (copyright 1990, Gaussian, Inc.),
 the Gaussian 88(TM) system (copyright 1988, Gaussian, Inc.),
 the Gaussian 86(TM) system (copyright 1986, Carnegie Mellon
 University), and the Gaussian 82(TM) system (copyright 1983,
 Carnegie Mellon University). Gaussian is a federally registered
 trademark of Gaussian, Inc.
  
 This software contains proprietary and confidential information,
 including trade secrets, belonging to Gaussian, Inc.
  
 This software is provided under written license and may be
 used, copied, transmitted, or stored only in accord with that
 written license.
  
 The following legend is applicable only to US Government
 contracts under FAR:
  
                    RESTRICTED RIGHTS LEGEND
  
 Use, reproduction and disclosure by the US Government is
 subject to restrictions as set forth in subparagraphs (a)
 and (c) of the Commercial Computer Software - Restricted
 Rights clause in FAR 52.227-19.
  
 Gaussian, Inc.
 340 Quinnipiac St., Bldg. 40, Wallingford CT 06492
  
  
 ---------------------------------------------------------------
 Warning -- This program may not be used in any manner that
 competes with the business of Gaussian, Inc. or will provide
 assistance to any competitor of Gaussian, Inc.  The licensee
 of this program is prohibited from giving any competitor of
 Gaussian, Inc. access to this program.  By using this program,
 the user acknowledges that Gaussian, Inc. is engaged in the
 business of creating and licensing software in the field of
 computational chemistry and represents and warrants to the
 licensee that it is not a competitor of Gaussian, Inc. and that
 it will not use this program in any manner prohibited above.
 ---------------------------------------------------------------
  

 Cite this work as:
 Gaussian 09, Revision E.01,
 M. J. Frisch, G. W. Trucks, H. B. Schlegel, G. E. Scuseria, 
 M. A. Robb, J. R. Cheeseman, G. Scalmani, V. Barone, B. Mennucci, 
 G. A. Petersson, H. Nakatsuji, M. Caricato, X. Li, H. P. Hratchian, 
 A. F. Izmaylov, J. Bloino, G. Zheng, J. L. Sonnenberg, M. Hada, 
 M. Ehara, K. Toyota, R. Fukuda, J. Hasegawa, M. Ishida, T. Nakajima, 
 Y. Honda, O. Kitao, H. Nakai, T. Vreven, J. A. Montgomery, Jr., 
 J. E. Peralta, F. Ogliaro, M. Bearpark, J. J. Heyd, E. Brothers, 
 K. N. Kudin, V. N. Staroverov, T. Keith, R. Kobayashi, J. Normand, 
 K. Raghavachari, A. Rendell, J. C. Burant, S. S. Iyengar, J. Tomasi, 
 M. Cossi, N. Rega, J. M. Millam, M. Klene, J. E. Knox, J. B. Cross, 
 V. Bakken, C. Adamo, J. Jaramillo, R. Gomperts, R. E. Stratmann, 
 O. Yazyev, A. J. Austin, R. Cammi, C. Pomelli, J. W. Ochterski, 
 R. L. Martin, K. Morokuma, V. G. Zakrzewski, G. A. Voth, 
 P. Salvador, J. J. Dannenberg, S. Dapprich, A. D. Daniels, 
 O. Farkas, J. B. Foresman, J. V. Ortiz, J. Cioslowski, 
 and D. J. Fox, Gaussian, Inc., Wallingford CT, 2013.
 
 ******************************************
 Gaussian 09:  ES64L-G09RevE.01 30-Nov-2015
                15-Jun-2020 
 ******************************************
 %nproc=28
 Will use up to   28 processors via shared memory.
 %mem=120GB
 %chk=/gscratch/ilahie/mccoygrp/data/TBHP/tbhp_030.chk
 -------------------------------------------------------------------
 #P opt=(z-matrix) cc-pvtz b2plypd3 integral=ultrafine scf=verytight
 #L poopt=(wamp) b2plypd3/cc-pvtz
 -------------------------------------------------------------------
 1/10=7,18=40,38=1/1,3;
 2/12=2,17=6,18=5,29=3,40=1/2;
 3/5=16,6=1,11=9,16=1,25=1,30=1,71=1,74=-60,75=-5/1,2,3;
 4//1;
 5/5=2,17=3,38=5/2;
 8/6=4,10=1/1;
 9/15=2,16=-3/6;
 10/5=1/2;
 6/7=2,8=2,9=2,10=2/1;
 7/12=2,29=1/1,2,3,16;
 1/10=7,18=40/3(2);
 2/29=3/2;
 99//99;
 2/29=3/2;
 3/5=16,6=1,11=9,16=1,25=1,30=1,71=1,74=-60,75=-5/1,2,3;
 4/5=5,16=3,69=1/1;
 5/5=2,17=3,38=5/2;
 8/6=4,10=1/1;
 9/15=2,16=-3/6;
 10/5=1/2;
 7/12=2/1,2,3,16;
 1/18=40/3(-8);
 2/29=3/2;
 6/7=2,8=2,9=2,10=2/1;
 99//99;
 Leave Link    1 at Mon Jun 15 17:37:04 2020, MaxMem= 16106127360 cpu:         2.8
 (Enter /sw/contrib/gaussian/g09/E01/g09/l101.exe)
 -----
 title
 -----
 Symbolic Z-matrix:
 Charge =  0 Multiplicity = 1
 C
 C                    1    B1
 H                    2    B2       1    A1
 H                    2    B3       1    A2       3    D1       0
 O                    1    B4       2    A3       3    D2       0
 O                    5    B5       1    A4       2    D3       0
 H                    6    B6       5    A5       1    D4       0
 C                    1    B7       5    A6       6    D5       0
 H                    8    B8       1    A7       5    D6       0
 H                    8    B9       1    A8       5    D7       0
 H                    8    B10      1    A9       5    D8       0
 C                    1    B11      5    A10      6    D9       0
 H                    12   B12      1    A11      5    D10      0
 H                    12   B13      1    A12      5    D11      0
 H                    12   B14      1    A13      5    D12      0
 H                    2    B15      1    A14      5    D13      0
       Variables:
  B1                    1.52517 -1        0.     
  B2                    1.08801 -1        0.     
  B3                    1.08789 -1        0.     
  B4                    1.4403  -1        0.     
  B5                    1.45821 -1        0.     
  B6                    0.76607Scan 27    0.02   
  B7                    1.52349 -1        0.     
  B8                    1.08797 -1        0.     
  B9                    1.08773 -1        0.     
  B10                   1.08857 -1        0.     
  B11                   1.52846 -1        0.     
  B12                   1.08805 -1        0.     
  B13                   1.08863 -1        0.     
  B14                   1.09191 -1        0.     
  B15                   1.08934 -1        0.     
  A1                  111.24707 -1        0.     
  A2                  109.98392 -1        0.     
  A3                  110.66825 -1        0.     
  A4                  112.14597 -1        0.     
  A5                  103.34544 -1        0.     
  A6                  101.52683 -1        0.     
  A7                  110.58104 -1        0.     
  A8                  110.16209 -1        0.     
  A9                  109.78908 -1        0.     
  A10                 110.98395 -1        0.     
  A11                 110.37048 -1        0.     
  A12                 109.74287 -1        0.     
  A13                 112.79777 -1        0.     
  A14                 110.34073 -1        0.     
  D1                  119.73528 -1        0.     
  D2                  -62.68838 -1        0.     
  D3                   62.31889 -1        0.     
  D4                   30.      -1        0.     
  D5                 -179.64309 -1        0.     
  D6                   61.6903  -1        0.     
  D7                  -58.48148 -1        0.     
  D8                  181.79425 -1        0.     
  D9                  -62.37406 -1        0.     
  D10                 -50.14254 -1        0.     
  D11                -170.06568 -1        0.     
  D12                  71.67226 -1        0.     
  D13                 177.14609 -1        0.     
 
 NAtoms=     16 NQM=       16 NQMF=       0 NMMI=      0 NMMIF=      0
                NMic=       0 NMicF=      0.
                    Isotopes and Nuclear Properties:
 (Nuclear quadrupole moments (NQMom) in fm**2, nuclear magnetic moments (NMagM)
  in nuclear magnetons)

  Atom         1           2           3           4           5           6           7           8           9          10
 IAtWgt=          12          12           1           1          16          16           1          12           1           1
 AtmWgt=  12.0000000  12.0000000   1.0078250   1.0078250  15.9949146  15.9949146   1.0078250  12.0000000   1.0078250   1.0078250
 NucSpn=           0           0           1           1           0           0           1           0           1           1
 AtZEff=   0.0000000   0.0000000   0.0000000   0.0000000   0.0000000   0.0000000   0.0000000   0.0000000   0.0000000   0.0000000
 NQMom=    0.0000000   0.0000000   0.0000000   0.0000000   0.0000000   0.0000000   0.0000000   0.0000000   0.0000000   0.0000000
 NMagM=    0.0000000   0.0000000   2.7928460   2.7928460   0.0000000   0.0000000   2.7928460   0.0000000   2.7928460   2.7928460
 AtZNuc=   6.0000000   6.0000000   1.0000000   1.0000000   8.0000000   8.0000000   1.0000000   6.0000000   1.0000000   1.0000000

  Atom        11          12          13          14          15          16
 IAtWgt=           1          12           1           1           1           1
 AtmWgt=   1.0078250  12.0000000   1.0078250   1.0078250   1.0078250   1.0078250
 NucSpn=           1           0           1           1           1           1
 AtZEff=   0.0000000   0.0000000   0.0000000   0.0000000   0.0000000   0.0000000
 NQMom=    0.0000000   0.0000000   0.0000000   0.0000000   0.0000000   0.0000000
 NMagM=    2.7928460   0.0000000   2.7928460   2.7928460   2.7928460   2.7928460
 AtZNuc=   1.0000000   6.0000000   1.0000000   1.0000000   1.0000000   1.0000000
 Leave Link  101 at Mon Jun 15 17:37:04 2020, MaxMem= 16106127360 cpu:         2.1
 (Enter /sw/contrib/gaussian/g09/E01/g09/l103.exe)

 GradGradGradGradGradGradGradGradGradGradGradGradGradGradGradGradGradGrad
 Berny optimization.
 Initialization pass.
                       ----------------------------
                       !    Initial Parameters    !
                       ! (Angstroms and Degrees)  !
 ----------------------                            ----------------------
 !      Name          Value   Derivative information (Atomic Units)     !
 ------------------------------------------------------------------------
 !       B1          1.5252   Frozen                                    !
 !       B2          1.088    Frozen                                    !
 !       B3          1.0879   Frozen                                    !
 !       B4          1.4403   Frozen                                    !
 !       B5          1.4582   Frozen                                    !
 !       B6          0.7661   Scan                                      !
 !       B7          1.5235   Frozen                                    !
 !       B8          1.088    Frozen                                    !
 !       B9          1.0877   Frozen                                    !
 !       B10         1.0886   Frozen                                    !
 !       B11         1.5285   Frozen                                    !
 !       B12         1.088    Frozen                                    !
 !       B13         1.0886   Frozen                                    !
 !       B14         1.0919   Frozen                                    !
 !       B15         1.0893   Frozen                                    !
 !       A1        111.2471   Frozen                                    !
 !       A2        109.9839   Frozen                                    !
 !       A3        110.6683   Frozen                                    !
 !       A4        112.146    Frozen                                    !
 !       A5        103.3454   Frozen                                    !
 !       A6        101.5268   Frozen                                    !
 !       A7        110.581    Frozen                                    !
 !       A8        110.1621   Frozen                                    !
 !       A9        109.7891   Frozen                                    !
 !       A10       110.984    Frozen                                    !
 !       A11       110.3705   Frozen                                    !
 !       A12       109.7429   Frozen                                    !
 !       A13       112.7978   Frozen                                    !
 !       A14       110.3407   Frozen                                    !
 !       D1        119.7353   Frozen                                    !
 !       D2        -62.6884   Frozen                                    !
 !       D3         62.3189   Frozen                                    !
 !       D4         30.0      Frozen                                    !
 !       D5       -179.6431   Frozen                                    !
 !       D6         61.6903   Frozen                                    !
 !       D7        -58.4815   Frozen                                    !
 !       D8        181.7943   Frozen                                    !
 !       D9        -62.3741   Frozen                                    !
 !       D10       -50.1425   Frozen                                    !
 !       D11      -170.0657   Frozen                                    !
 !       D12        71.6723   Frozen                                    !
 !       D13       177.1461   Frozen                                    !
 ------------------------------------------------------------------------
 Trust Radius=3.00D-01 FncErr=1.00D-07 GrdErr=1.00D-07
 Number of optimizations in scan=  28
 Number of steps in this run=     52 maximum allowed number of steps=    100.
 GradGradGradGradGradGradGradGradGradGradGradGradGradGradGradGradGradGrad

 Leave Link  103 at Mon Jun 15 17:37:04 2020, MaxMem= 16106127360 cpu:         0.5
 (Enter /sw/contrib/gaussian/g09/E01/g09/l202.exe)
 ---------------------------------------------------------------------------------------------------
                            Z-MATRIX (ANGSTROMS AND DEGREES)
   CD    Cent   Atom    N1       Length/X        N2       Alpha/Y        N3        Beta/Z          J
 ---------------------------------------------------------------------------------------------------
      1      1  C 
      2      2  C        1   1.525170(     1)
      3      3  H        2   1.088010(     2)      1  111.247(    16)
      4      4  H        2   1.087890(     3)      1  109.984(    17)      3  119.735(    30)      0
      5      5  O        1   1.440300(     4)      2  110.668(    18)      3  -62.688(    31)      0
      6      6  O        5   1.458210(     5)      1  112.146(    19)      2   62.319(    32)      0
      7      7  H        6   0.766070(     6)      5  103.345(    20)      1   30.000(    33)      0
      8      8  C        1   1.523490(     7)      5  101.527(    21)      6 -179.643(    34)      0
      9      9  H        8   1.087970(     8)      1  110.581(    22)      5   61.690(    35)      0
     10     10  H        8   1.087730(     9)      1  110.162(    23)      5  -58.481(    36)      0
     11     11  H        8   1.088570(    10)      1  109.789(    24)      5  181.794(    37)      0
     12     12  C        1   1.528460(    11)      5  110.984(    25)      6  -62.374(    38)      0
     13     13  H       12   1.088050(    12)      1  110.370(    26)      5  -50.143(    39)      0
     14     14  H       12   1.088630(    13)      1  109.743(    27)      5 -170.066(    40)      0
     15     15  H       12   1.091910(    14)      1  112.798(    28)      5   71.672(    41)      0
     16     16  H        2   1.089340(    15)      1  110.341(    29)      5  177.146(    42)      0
 ---------------------------------------------------------------------------------------------------
                         Z-Matrix orientation:                         
 ---------------------------------------------------------------------
 Center     Atomic      Atomic             Coordinates (Angstroms)
 Number     Number       Type             X           Y           Z
 ---------------------------------------------------------------------
      1          6           0        0.000000    0.000000    0.000000
      2          6           0        0.000000    0.000000    1.525170
      3          1           0        1.014054    0.000000    1.919454
      4          1           0       -0.507097    0.887765    1.896963
      5          8           0        0.618320    1.197377   -0.508363
      6          8           0        2.018634    1.302350   -0.115328
      7          1           0        2.241922    0.571660   -0.059662
      8          6           0       -1.415018    0.131395   -0.549072
      9          1           0       -1.403765    0.141087   -1.636940
     10          1           0       -1.869602    1.054688   -0.196878
     11          1           0       -2.020765   -0.707661   -0.211374
     12          6           0        0.676051   -1.248151   -0.566802
     13          1           0        0.754789   -1.177540   -1.649699
     14          1           0        0.090495   -2.130404   -0.314077
     15          1           0        1.672907   -1.414110   -0.153277
     16          1           0       -0.513259   -0.883089    1.903827
 ---------------------------------------------------------------------
                    Distance matrix (angstroms):
                    1          2          3          4          5
     1  C    0.000000
     2  C    1.525170   0.000000
     3  H    2.170855   1.088010   0.000000
     4  H    2.154935   1.087890   1.761401   0.000000
     5  O    1.440300   2.439526   2.735802   2.673578   0.000000
     6  O    2.405057   2.908992   2.616417   3.255843   1.458210
     7  H    2.314426   2.804407   2.398198   3.389013   1.796924
     8  C    1.523490   2.514363   3.465729   2.716524   2.296179
     9  H    2.161027   3.462572   4.302755   3.721561   2.545243
    10  H    2.155583   2.751950   3.729169   2.503688   2.511401
    11  H    2.151501   2.756785   3.775095   3.046582   3.268355
    12  C    1.528460   2.528096   2.802427   3.468734   2.446907
    13  H    2.162826   3.469309   3.767317   4.293793   2.638466
    14  H    2.155331   2.815961   3.221839   3.788820   3.374977
    15  H    2.195864   2.759621   2.594226   3.775517   2.838680
    16  H    2.160518   1.089340   1.764306   1.770878   3.380454
                    6          7          8          9         10
     6  O    0.000000
     7  H    0.766070   0.000000
     8  C    3.653661   3.715719   0.000000
     9  H    3.921308   3.995527   1.087970   0.000000
    10  H    3.896969   4.142073   1.087730   1.767894   0.000000
    11  H    4.512883   4.453109   1.088570   1.770114   1.768880
    12  C    2.917432   2.453743   2.505201   2.720444   3.452573
    13  H    3.178279   2.792756   2.762745   2.529486   3.739112
    14  H    3.942210   3.463309   2.727183   3.023649   3.741728
    15  H    2.738635   2.067806   3.475705   3.753107   4.318129
    16  H    3.906867   3.682744   2.803402   3.791962   3.163480
                   11         12         13         14         15
    11  H    0.000000
    12  C    2.773315   0.000000
    13  H    3.161213   1.088050   0.000000
    14  H    2.547972   1.088630   1.770063   0.000000
    15  H    3.761072   1.091910   1.771493   1.744409   0.000000
    16  H    2.603349   2.766177   3.784468   2.615227   3.048439
                   16
    16  H    0.000000
 Stoichiometry    C4H10O2
 Framework group  C1[X(C4H10O2)]
 Deg. of freedom    42
 Full point group                 C1      NOp   1
 Largest Abelian subgroup         C1      NOp   1
 Largest concise Abelian subgroup C1      NOp   1
                         Standard orientation:                         
 ---------------------------------------------------------------------
 Center     Atomic      Atomic             Coordinates (Angstroms)
 Number     Number       Type             X           Y           Z
 ---------------------------------------------------------------------
      1          6           0        0.375038    0.001294    0.030074
      2          6           0        0.375424   -1.064238    1.121305
      3          1           0       -0.523714   -1.004513    1.731017
      4          1           0        0.414874   -2.054934    0.673566
      5          8           0       -0.726831   -0.198967   -0.875600
      6          8           0       -2.017014   -0.077306   -0.207017
      7          1           0       -1.877280    0.421270    0.357571
      8          6           0        1.568971   -0.166203   -0.901317
      9          1           0        1.554236    0.591387   -1.682035
     10          1           0        1.545426   -1.148392   -1.368121
     11          1           0        2.494030   -0.069926   -0.335649
     12          6           0        0.352285    1.412759    0.616111
     13          1           0        0.249552    2.150526   -0.176983
     14          1           0        1.279384    1.602485    1.154263
     15          1           0       -0.454891    1.558667    1.336836
     16          1           0        1.238830   -0.938066    1.773434
 ---------------------------------------------------------------------
 Rotational constants (GHZ):      4.4675757      2.7700575      2.7561918
 Leave Link  202 at Mon Jun 15 17:37:04 2020, MaxMem= 16106127360 cpu:         1.2
 (Enter /sw/contrib/gaussian/g09/E01/g09/l301.exe)
 Standard basis: CC-pVTZ (5D, 7F)
 Ernie: Thresh=  0.10000D-02 Tol=  0.10000D-05 Strict=F.
 Ernie:  18 primitive shells out of 236 were deleted.
 There are   360 symmetry adapted cartesian basis functions of A   symmetry.
 There are   320 symmetry adapted basis functions of A   symmetry.
   320 basis functions,   482 primitive gaussians,   360 cartesian basis functions
    25 alpha electrons       25 beta electrons
       nuclear repulsion energy       272.0703796357 Hartrees.
 IExCor=  419 DFT=T Ex+Corr=B2PLYPD3 ExCW=0 ScaHFX=  0.530000
 ScaDFX=  0.470000  0.470000  0.730000  0.730000 ScalE2=  0.270000  0.270000
 IRadAn=      5 IRanWt=     -1 IRanGd=            0 ICorTp=0 IEmpDi=141
 NAtoms=   16 NActive=   16 NUniq=   16 SFac= 1.00D+00 NAtFMM=   60 NAOKFM=F Big=F
 Integral buffers will be    131072 words long.
 Regular integral format.
 Two-electron integral symmetry is turned on.
 R6Disp:  Grimme-D3(BJ) Dispersion energy=       -0.0091681164 Hartrees.
 Nuclear repulsion after empirical dispersion term =      272.0612115193 Hartrees.
 Leave Link  301 at Mon Jun 15 17:37:04 2020, MaxMem= 16106127360 cpu:         1.2
 (Enter /sw/contrib/gaussian/g09/E01/g09/l302.exe)
 NPDir=0 NMtPBC=     1 NCelOv=     1 NCel=       1 NClECP=     1 NCelD=      1
         NCelK=      1 NCelE2=     1 NClLst=     1 CellRange=     0.0.
 One-electron integrals computed using PRISM.
 NBasis=   320 RedAO= T EigKep=  5.42D-04  NBF=   320
 NBsUse=   320 1.00D-06 EigRej= -1.00D+00 NBFU=   320
 Precomputing XC quadrature grid using
 IXCGrd= 4 IRadAn=           5 IRanWt=          -1 IRanGd=           0 AccXCQ= 0.00D+00.
 Generated NRdTot=       0 NPtTot=           0 NUsed=           0 NTot=          32
 NSgBfM=   360   360   360   360   360 MxSgAt=    16 MxSgA2=    16.
 Leave Link  302 at Mon Jun 15 17:37:04 2020, MaxMem= 16106127360 cpu:        13.5
 (Enter /sw/contrib/gaussian/g09/E01/g09/l303.exe)
 DipDrv:  MaxL=1.
 Leave Link  303 at Mon Jun 15 17:37:04 2020, MaxMem= 16106127360 cpu:         0.9
 (Enter /sw/contrib/gaussian/g09/E01/g09/l401.exe)
 ExpMin= 1.03D-01 ExpMax= 1.53D+04 ExpMxC= 5.22D+02 IAcc=3 IRadAn=         5 AccDes= 0.00D+00
 Harris functional with IExCor=  419 and IRadAn=       5 diagonalized for initial guess.
 HarFok:  IExCor=  419 AccDes= 0.00D+00 IRadAn=         5 IDoV= 1 UseB2=F ITyADJ=14
 ICtDFT=  3500011 ScaDFX=  1.000000  1.000000  1.000000  1.000000
 FoFCou: FMM=F IPFlag=           0 FMFlag=      100000 FMFlg1=           0
         NFxFlg=           0 DoJE=T BraDBF=F KetDBF=T FulRan=T
         wScrn=  0.000000 ICntrl=     500 IOpCl=  0 I1Cent=   200000004 NGrid=           0
         NMat0=    1 NMatS0=      1 NMatT0=    0 NMatD0=    1 NMtDS0=    0 NMtDT0=    0
 Petite list used in FoFCou.
 Harris En= -308.957801697106    
 JPrj=0 DoOrth=F DoCkMO=F.
 Leave Link  401 at Mon Jun 15 17:37:05 2020, MaxMem= 16106127360 cpu:        27.3
 (Enter /sw/contrib/gaussian/g09/E01/g09/l502.exe)
 Closed shell SCF:
 Using DIIS extrapolation, IDIIS=  1040.
 Integral symmetry usage will be decided dynamically.
 Keep R1 ints in memory in canonical form, NReq=1342893302.
 IVT=      420062 IEndB=      420062 NGot= 16106127360 MDV= 14786756819
 LenX= 14786756819 LenY= 14786626778
 Requested convergence on RMS density matrix=1.00D-08 within 128 cycles.
 Requested convergence on MAX density matrix=1.00D-06.
 Requested convergence on             energy=1.00D-06.
 No special actions if energy rises.
 FoFCou: FMM=F IPFlag=           0 FMFlag=           0 FMFlg1=           0
         NFxFlg=           0 DoJE=F BraDBF=F KetDBF=F FulRan=T
         wScrn=  0.000000 ICntrl=     600 IOpCl=  0 I1Cent=           0 NGrid=           0
         NMat0=    1 NMatS0=  51360 NMatT0=    0 NMatD0=    1 NMtDS0=    0 NMtDT0=    0
 Symmetry not used in FoFCou.
 Integral accuracy reduced to 1.0D-05 until final iterations.

 Cycle   1  Pass 0  IDiag  1:
 E= -307.939257451636    
 DIIS: error= 3.24D-02 at cycle   1 NSaved=   1.
 NSaved= 1 IEnMin= 1 EnMin= -307.939257451636     IErMin= 1 ErrMin= 3.24D-02
 ErrMax= 3.24D-02  0.00D+00 EMaxC= 1.00D-01 BMatC= 3.79D-01 BMatP= 3.79D-01
 IDIUse=3 WtCom= 6.76D-01 WtEn= 3.24D-01
 Coeff-Com:  0.100D+01
 Coeff-En:   0.100D+01
 Coeff:      0.100D+01
 Gap=     0.464 Goal=   None    Shift=    0.000
 GapD=    0.464 DampG=2.000 DampE=0.500 DampFc=1.0000 IDamp=-1.
 RMSDP=1.77D-03 MaxDP=5.09D-02              OVMax= 1.46D-01

 Cycle   2  Pass 0  IDiag  1:
 E= -308.062089946825     Delta-E=       -0.122832495189 Rises=F Damp=F
 DIIS: error= 2.73D-02 at cycle   2 NSaved=   2.
 NSaved= 2 IEnMin= 2 EnMin= -308.062089946825     IErMin= 2 ErrMin= 2.73D-02
 ErrMax= 2.73D-02  0.00D+00 EMaxC= 1.00D-01 BMatC= 1.90D-01 BMatP= 3.79D-01
 IDIUse=3 WtCom= 7.27D-01 WtEn= 2.73D-01
 Coeff-Com:  0.406D+00 0.594D+00
 Coeff-En:   0.328D+00 0.672D+00
 Coeff:      0.385D+00 0.615D+00
 Gap=     0.414 Goal=   None    Shift=    0.000
 RMSDP=9.70D-04 MaxDP=3.18D-02 DE=-1.23D-01 OVMax= 7.03D-02

 Cycle   3  Pass 0  IDiag  1:
 E= -308.216372586547     Delta-E=       -0.154282639722 Rises=F Damp=F
 DIIS: error= 6.03D-03 at cycle   3 NSaved=   3.
 NSaved= 3 IEnMin= 3 EnMin= -308.216372586547     IErMin= 3 ErrMin= 6.03D-03
 ErrMax= 6.03D-03  0.00D+00 EMaxC= 1.00D-01 BMatC= 1.15D-02 BMatP= 1.90D-01
 IDIUse=3 WtCom= 9.40D-01 WtEn= 6.03D-02
 Coeff-Com:  0.852D-01 0.231D+00 0.684D+00
 Coeff-En:   0.000D+00 0.000D+00 0.100D+01
 Coeff:      0.801D-01 0.217D+00 0.703D+00
 Gap=     0.410 Goal=   None    Shift=    0.000
 RMSDP=2.15D-04 MaxDP=1.00D-02 DE=-1.54D-01 OVMax= 2.16D-02

 Cycle   4  Pass 0  IDiag  1:
 E= -308.222190972239     Delta-E=       -0.005818385692 Rises=F Damp=F
 DIIS: error= 3.05D-03 at cycle   4 NSaved=   4.
 NSaved= 4 IEnMin= 4 EnMin= -308.222190972239     IErMin= 4 ErrMin= 3.05D-03
 ErrMax= 3.05D-03  0.00D+00 EMaxC= 1.00D-01 BMatC= 3.06D-03 BMatP= 1.15D-02
 IDIUse=3 WtCom= 9.70D-01 WtEn= 3.05D-02
 Coeff-Com: -0.701D-02 0.430D-01 0.392D+00 0.572D+00
 Coeff-En:   0.000D+00 0.000D+00 0.180D+00 0.820D+00
 Coeff:     -0.680D-02 0.417D-01 0.386D+00 0.579D+00
 Gap=     0.397 Goal=   None    Shift=    0.000
 RMSDP=9.10D-05 MaxDP=4.69D-03 DE=-5.82D-03 OVMax= 7.82D-03

 Cycle   5  Pass 0  IDiag  1:
 E= -308.224184828419     Delta-E=       -0.001993856179 Rises=F Damp=F
 DIIS: error= 3.19D-04 at cycle   5 NSaved=   5.
 NSaved= 5 IEnMin= 5 EnMin= -308.224184828419     IErMin= 5 ErrMin= 3.19D-04
 ErrMax= 3.19D-04  0.00D+00 EMaxC= 1.00D-01 BMatC= 2.31D-05 BMatP= 3.06D-03
 IDIUse=3 WtCom= 9.97D-01 WtEn= 3.19D-03
 Coeff-Com: -0.431D-02 0.492D-02 0.882D-01 0.168D+00 0.743D+00
 Coeff-En:   0.000D+00 0.000D+00 0.000D+00 0.000D+00 0.100D+01
 Coeff:     -0.430D-02 0.491D-02 0.879D-01 0.167D+00 0.744D+00
 Gap=     0.396 Goal=   None    Shift=    0.000
 RMSDP=1.30D-05 MaxDP=3.85D-04 DE=-1.99D-03 OVMax= 1.28D-03

 Cycle   6  Pass 0  IDiag  1:
 E= -308.224203097527     Delta-E=       -0.000018269109 Rises=F Damp=F
 DIIS: error= 9.35D-05 at cycle   6 NSaved=   6.
 NSaved= 6 IEnMin= 6 EnMin= -308.224203097527     IErMin= 6 ErrMin= 9.35D-05
 ErrMax= 9.35D-05  0.00D+00 EMaxC= 1.00D-01 BMatC= 2.58D-06 BMatP= 2.31D-05
 IDIUse=1 WtCom= 1.00D+00 WtEn= 0.00D+00
 Coeff-Com: -0.130D-02-0.520D-03 0.147D-01 0.330D-01 0.284D+00 0.670D+00
 Coeff:     -0.130D-02-0.520D-03 0.147D-01 0.330D-01 0.284D+00 0.670D+00
 Gap=     0.396 Goal=   None    Shift=    0.000
 RMSDP=3.90D-06 MaxDP=1.77D-04 DE=-1.83D-05 OVMax= 2.93D-04

 Initial convergence to 1.0D-05 achieved.  Increase integral accuracy.
 Cycle   7  Pass 1  IDiag  1:
 E= -308.224203118775     Delta-E=       -0.000000021248 Rises=F Damp=F
 DIIS: error= 2.39D-05 at cycle   1 NSaved=   1.
 NSaved= 1 IEnMin= 1 EnMin= -308.224203118775     IErMin= 1 ErrMin= 2.39D-05
 ErrMax= 2.39D-05  0.00D+00 EMaxC= 1.00D-01 BMatC= 2.13D-07 BMatP= 2.13D-07
 IDIUse=1 WtCom= 1.00D+00 WtEn= 0.00D+00
 Coeff-Com:  0.100D+01
 Coeff:      0.100D+01
 Gap=     0.396 Goal=   None    Shift=    0.000
 RMSDP=3.90D-06 MaxDP=1.77D-04 DE=-2.12D-08 OVMax= 1.97D-04

 Cycle   8  Pass 1  IDiag  1:
 E= -308.224203220159     Delta-E=       -0.000000101384 Rises=F Damp=F
 DIIS: error= 2.03D-05 at cycle   2 NSaved=   2.
 NSaved= 2 IEnMin= 2 EnMin= -308.224203220159     IErMin= 2 ErrMin= 2.03D-05
 ErrMax= 2.03D-05  0.00D+00 EMaxC= 1.00D-01 BMatC= 1.81D-07 BMatP= 2.13D-07
 IDIUse=1 WtCom= 1.00D+00 WtEn= 0.00D+00
 Coeff-Com:  0.477D+00 0.523D+00
 Coeff:      0.477D+00 0.523D+00
 Gap=     0.396 Goal=   None    Shift=    0.000
 RMSDP=8.27D-07 MaxDP=3.50D-05 DE=-1.01D-07 OVMax= 7.49D-05

 Cycle   9  Pass 1  IDiag  1:
 E= -308.224203362843     Delta-E=       -0.000000142684 Rises=F Damp=F
 DIIS: error= 2.51D-06 at cycle   3 NSaved=   3.
 NSaved= 3 IEnMin= 3 EnMin= -308.224203362843     IErMin= 3 ErrMin= 2.51D-06
 ErrMax= 2.51D-06  0.00D+00 EMaxC= 1.00D-01 BMatC= 4.89D-09 BMatP= 1.81D-07
 IDIUse=1 WtCom= 1.00D+00 WtEn= 0.00D+00
 Coeff-Com: -0.967D-01 0.835D-02 0.109D+01
 Coeff:     -0.967D-01 0.835D-02 0.109D+01
 Gap=     0.396 Goal=   None    Shift=    0.000
 RMSDP=3.76D-07 MaxDP=1.30D-05 DE=-1.43D-07 OVMax= 4.88D-05

 Cycle  10  Pass 1  IDiag  1:
 E= -308.224203370617     Delta-E=       -0.000000007774 Rises=F Damp=F
 DIIS: error= 2.26D-06 at cycle   4 NSaved=   4.
 NSaved= 4 IEnMin= 4 EnMin= -308.224203370617     IErMin= 4 ErrMin= 2.26D-06
 ErrMax= 2.26D-06  0.00D+00 EMaxC= 1.00D-01 BMatC= 1.76D-09 BMatP= 4.89D-09
 IDIUse=1 WtCom= 1.00D+00 WtEn= 0.00D+00
 Coeff-Com: -0.977D-01-0.534D-01 0.520D+00 0.631D+00
 Coeff:     -0.977D-01-0.534D-01 0.520D+00 0.631D+00
 Gap=     0.396 Goal=   None    Shift=    0.000
 RMSDP=1.16D-07 MaxDP=5.01D-06 DE=-7.77D-09 OVMax= 1.65D-05

 Cycle  11  Pass 1  IDiag  1:
 E= -308.224203372376     Delta-E=       -0.000000001759 Rises=F Damp=F
 DIIS: error= 7.39D-07 at cycle   5 NSaved=   5.
 NSaved= 5 IEnMin= 5 EnMin= -308.224203372376     IErMin= 5 ErrMin= 7.39D-07
 ErrMax= 7.39D-07  0.00D+00 EMaxC= 1.00D-01 BMatC= 2.63D-10 BMatP= 1.76D-09
 IDIUse=1 WtCom= 1.00D+00 WtEn= 0.00D+00
 Coeff-Com: -0.291D-01-0.273D-01 0.375D-01 0.280D+00 0.739D+00
 Coeff:     -0.291D-01-0.273D-01 0.375D-01 0.280D+00 0.739D+00
 Gap=     0.396 Goal=   None    Shift=    0.000
 RMSDP=5.61D-08 MaxDP=1.81D-06 DE=-1.76D-09 OVMax= 9.77D-06

 Cycle  12  Pass 1  IDiag  1:
 E= -308.224203372706     Delta-E=       -0.000000000330 Rises=F Damp=F
 DIIS: error= 1.63D-07 at cycle   6 NSaved=   6.
 NSaved= 6 IEnMin= 6 EnMin= -308.224203372706     IErMin= 6 ErrMin= 1.63D-07
 ErrMax= 1.63D-07  0.00D+00 EMaxC= 1.00D-01 BMatC= 1.23D-11 BMatP= 2.63D-10
 IDIUse=1 WtCom= 1.00D+00 WtEn= 0.00D+00
 Coeff-Com:  0.163D-01 0.871D-02-0.809D-01-0.998D-01-0.255D-01 0.118D+01
 Coeff:      0.163D-01 0.871D-02-0.809D-01-0.998D-01-0.255D-01 0.118D+01
 Gap=     0.396 Goal=   None    Shift=    0.000
 RMSDP=2.93D-08 MaxDP=1.12D-06 DE=-3.30D-10 OVMax= 6.64D-06

 Cycle  13  Pass 1  IDiag  1:
 E= -308.224203372756     Delta-E=       -0.000000000050 Rises=F Damp=F
 DIIS: error= 6.27D-08 at cycle   7 NSaved=   7.
 NSaved= 7 IEnMin= 7 EnMin= -308.224203372756     IErMin= 7 ErrMin= 6.27D-08
 ErrMax= 6.27D-08  0.00D+00 EMaxC= 1.00D-01 BMatC= 1.52D-12 BMatP= 1.23D-11
 IDIUse=1 WtCom= 1.00D+00 WtEn= 0.00D+00
 Coeff-Com:  0.428D-02 0.304D-02-0.110D-01-0.401D-01-0.565D-01 0.136D+00
 Coeff-Com:  0.964D+00
 Coeff:      0.428D-02 0.304D-02-0.110D-01-0.401D-01-0.565D-01 0.136D+00
 Coeff:      0.964D+00
 Gap=     0.396 Goal=   None    Shift=    0.000
 RMSDP=7.88D-09 MaxDP=2.73D-07 DE=-5.02D-11 OVMax= 1.80D-06

 SCF Done:  E(RB2PLYPD3) =  -308.224203373     A.U. after   13 cycles
            NFock= 13  Conv=0.79D-08     -V/T= 2.0025
 KE= 3.074693487822D+02 PE=-1.265793354877D+03 EE= 3.780385912028D+02
 Leave Link  502 at Mon Jun 15 17:37:49 2020, MaxMem= 16106127360 cpu:       390.1
 (Enter /sw/contrib/gaussian/g09/E01/g09/l801.exe)
 DoSCS=T DFT=T ScalE2(SS,OS)=  0.270000  0.270000
 ExpMin= 1.03D-01 ExpMax= 1.53D+04 ExpMxC= 5.22D+02 IAcc=3 IRadAn=         5 AccDes= 0.00D+00
 HarFok:  IExCor=  205 AccDes= 0.00D+00 IRadAn=         5 IDoV=-2 UseB2=F ITyADJ=14
 ICtDFT= 12500011 ScaDFX=  1.000000  1.000000  1.000000  1.000000
 Largest valence mixing into a core orbital is  1.20D-04
 Largest core mixing into a valence orbital is  1.98D-05
 Range of M.O.s used for correlation:     7   320
 NBasis=   320 NAE=    25 NBE=    25 NFC=     6 NFV=     0
 NROrb=    314 NOA=    19 NOB=    19 NVA=   295 NVB=   295

 **** Warning!!: The largest alpha MO coefficient is  0.12271807D+02

 Leave Link  801 at Mon Jun 15 17:37:49 2020, MaxMem= 16106127360 cpu:         2.8
 (Enter /sw/contrib/gaussian/g09/E01/g09/l906.exe)
 DoSCS=T DFT=T ScalE2(SS,OS)=  0.270000  0.270000
 Frozen-core derivative calculation, NFC=   6 NFV=   0.
 FulOut=F Deriv=T AODrv=T NAtomX=    16
   MMem=         691  MDisk=          19 MDiskD=          19
  W3Min=     2880000 MinDsk=     4400780 NBas6D=         360
 NBas2D=       65694    NTT=       64980    LW2=     3500000
    MDV= 16104913047 MDiskM=      223651 NBas2p=       64569
 Fully direct method using O(ONN) memory.
 IMap=   1   2   3   4   5   6   7   8   9  10  11  12  13  14  15  16  17  18  19  20
 IMap=  21  22  23  24  25
 JobTyp=1 Pass  1:  I=   7 to  25 NPSUse= 28 ParTrn=T ParDer=T DoDerP=T.
 Spin components of T(2) and E(2):
     alpha-alpha T2 =       0.6317071432D-01 E2=     -0.4614706097D-01
     alpha-beta  T2 =       0.3787264775D+00 E2=     -0.2941335811D+00
     beta-beta   T2 =       0.6317071432D-01 E2=     -0.4614706097D-01
 The integrals were generated   1 times.
 E2(B2PLYPD3) =    -0.3864277031D+00 E(B2PLYPD3) =    -0.30861063107585D+03
 Leave Link  906 at Mon Jun 15 17:39:34 2020, MaxMem= 16106127360 cpu:      2941.2
 (Enter /sw/contrib/gaussian/g09/E01/g09/l1002.exe)
 Minotr:  Closed shell wavefunction.
          Computing MP2/KS-MP2 derivatives.
          Using Z-Vector for PSCF gradient.
          Skipping F1 and S1 gradient terms here.
          IDoAtm=1111111111111111
          Frozen-core window.
          Direct CPHF calculation.
          Differentiating once with respect to electric field.
                with respect to dipole field.
          Differentiating once with respect to nuclear coordinates.
          Requested convergence is 1.0D-10 RMS, and 1.0D-09 maximum.
          NewPWx=F KeepS1=T KeepF1=T KeepIn=T MapXYZ=F SortEE=F KeepMc=T.
          MDV=   16106126882 using IRadAn=       5.
 Using stored XC quadrature information.
 Keep R1 ints in memory in canonical form, NReq=1342475877.
 FoFCou: FMM=F IPFlag=           0 FMFlag=           0 FMFlg1=           0
         NFxFlg=           0 DoJE=F BraDBF=F KetDBF=F FulRan=T
         wScrn=  0.000000 ICntrl=     600 IOpCl=  0 I1Cent=           0 NGrid=           0
         NMat0=    1 NMatS0=  51360 NMatT0=    0 NMatD0=    1 NMtDS0=    0 NMtDT0=    0
 Symmetry not used in FoFCou.
          Solving linear equations separately, MaxMat=       0.
          There are     1 degrees of freedom in the 1st order CPHF.  IDoFFX=0 NUNeed=     1.
 LinEq1:  Iter=  0 NonCon=     1 RMS=1.16D-03 Max=2.29D-02 NDo=     1
 AX will form     1 AO Fock derivatives at one time.
 LinEq1:  Iter=  1 NonCon=     1 RMS=3.53D-04 Max=5.57D-03 NDo=     1
 LinEq1:  Iter=  2 NonCon=     1 RMS=1.09D-04 Max=2.70D-03 NDo=     1
 LinEq1:  Iter=  3 NonCon=     1 RMS=4.74D-05 Max=6.08D-04 NDo=     1
 LinEq1:  Iter=  4 NonCon=     1 RMS=2.13D-05 Max=5.83D-04 NDo=     1
 LinEq1:  Iter=  5 NonCon=     1 RMS=1.30D-05 Max=2.78D-04 NDo=     1
 LinEq1:  Iter=  6 NonCon=     1 RMS=4.69D-06 Max=7.17D-05 NDo=     1
 LinEq1:  Iter=  7 NonCon=     1 RMS=1.23D-06 Max=1.90D-05 NDo=     1
 LinEq1:  Iter=  8 NonCon=     1 RMS=4.43D-07 Max=6.46D-06 NDo=     1
 LinEq1:  Iter=  9 NonCon=     1 RMS=1.91D-07 Max=4.45D-06 NDo=     1
 LinEq1:  Iter= 10 NonCon=     1 RMS=7.63D-08 Max=2.13D-06 NDo=     1
 LinEq1:  Iter= 11 NonCon=     1 RMS=2.00D-08 Max=6.71D-07 NDo=     1
 LinEq1:  Iter= 12 NonCon=     1 RMS=4.00D-09 Max=7.88D-08 NDo=     1
 LinEq1:  Iter= 13 NonCon=     1 RMS=1.14D-09 Max=2.04D-08 NDo=     1
 LinEq1:  Iter= 14 NonCon=     1 RMS=3.39D-10 Max=5.22D-09 NDo=     1
 LinEq1:  Iter= 15 NonCon=     1 RMS=1.38D-10 Max=1.37D-09 NDo=     1
 LinEq1:  Iter= 16 NonCon=     0 RMS=3.44D-11 Max=5.01D-10 NDo=     1
 Linear equations converged to 1.000D-10 1.000D-09 after    16 iterations.
 End of Minotr F.D. properties file   721 does not exist.
 End of Minotr F.D. properties file   722 does not exist.
 End of Minotr F.D. properties file   788 does not exist.
 Leave Link 1002 at Mon Jun 15 17:40:41 2020, MaxMem= 16106127360 cpu:       764.5
 (Enter /sw/contrib/gaussian/g09/E01/g09/l601.exe)
 Copying SCF densities to generalized density rwf, IOpCl= 0 IROHF=0.

 **********************************************************************

            Population analysis using the SCF density.

 **********************************************************************

 Orbital symmetries:
       Occupied  (A) (A) (A) (A) (A) (A) (A) (A) (A) (A) (A) (A)
                 (A) (A) (A) (A) (A) (A) (A) (A) (A) (A) (A) (A)
                 (A)
       Virtual   (A) (A) (A) (A) (A) (A) (A) (A) (A) (A) (A) (A)
                 (A) (A) (A) (A) (A) (A) (A) (A) (A) (A) (A) (A)
                 (A) (A) (A) (A) (A) (A) (A) (A) (A) (A) (A) (A)
                 (A) (A) (A) (A) (A) (A) (A) (A) (A) (A) (A) (A)
                 (A) (A) (A) (A) (A) (A) (A) (A) (A) (A) (A) (A)
                 (A) (A) (A) (A) (A) (A) (A) (A) (A) (A) (A) (A)
                 (A) (A) (A) (A) (A) (A) (A) (A) (A) (A) (A) (A)
                 (A) (A) (A) (A) (A) (A) (A) (A) (A) (A) (A) (A)
                 (A) (A) (A) (A) (A) (A) (A) (A) (A) (A) (A) (A)
                 (A) (A) (A) (A) (A) (A) (A) (A) (A) (A) (A) (A)
                 (A) (A) (A) (A) (A) (A) (A) (A) (A) (A) (A) (A)
                 (A) (A) (A) (A) (A) (A) (A) (A) (A) (A) (A) (A)
                 (A) (A) (A) (A) (A) (A) (A) (A) (A) (A) (A) (A)
                 (A) (A) (A) (A) (A) (A) (A) (A) (A) (A) (A) (A)
                 (A) (A) (A) (A) (A) (A) (A) (A) (A) (A) (A) (A)
                 (A) (A) (A) (A) (A) (A) (A) (A) (A) (A) (A) (A)
                 (A) (A) (A) (A) (A) (A) (A) (A) (A) (A) (A) (A)
                 (A) (A) (A) (A) (A) (A) (A) (A) (A) (A) (A) (A)
                 (A) (A) (A) (A) (A) (A) (A) (A) (A) (A) (A) (A)
                 (A) (A) (A) (A) (A) (A) (A) (A) (A) (A) (A) (A)
                 (A) (A) (A) (A) (A) (A) (A) (A) (A) (A) (A) (A)
                 (A) (A) (A) (A) (A) (A) (A) (A) (A) (A) (A) (A)
                 (A) (A) (A) (A) (A) (A) (A) (A) (A) (A) (A) (A)
                 (A) (A) (A) (A) (A) (A) (A) (A) (A) (A) (A) (A)
                 (A) (A) (A) (A) (A) (A) (A)
 The electronic state is 1-A.
 Alpha  occ. eigenvalues --  -19.78180 -19.75554 -10.68791 -10.61811 -10.61178
 Alpha  occ. eigenvalues --  -10.60907  -1.28934  -1.08671  -0.91442  -0.81221
 Alpha  occ. eigenvalues --   -0.80756  -0.68506  -0.60025  -0.54912  -0.54626
 Alpha  occ. eigenvalues --   -0.51925  -0.49454  -0.48781  -0.45422  -0.44999
 Alpha  occ. eigenvalues --   -0.44327  -0.42676  -0.40775  -0.39840  -0.32935
 Alpha virt. eigenvalues --    0.06700   0.08115   0.11691   0.12104   0.13525
 Alpha virt. eigenvalues --    0.13814   0.14149   0.17602   0.18100   0.18636
 Alpha virt. eigenvalues --    0.20360   0.20621   0.23054   0.24355   0.25880
 Alpha virt. eigenvalues --    0.30069   0.30647   0.34744   0.37609   0.38024
 Alpha virt. eigenvalues --    0.41012   0.41949   0.44519   0.45555   0.47532
 Alpha virt. eigenvalues --    0.49217   0.51022   0.51585   0.52171   0.53001
 Alpha virt. eigenvalues --    0.53594   0.54195   0.54456   0.55765   0.56107
 Alpha virt. eigenvalues --    0.56342   0.57399   0.61946   0.63731   0.68005
 Alpha virt. eigenvalues --    0.69186   0.71796   0.75306   0.78185   0.78729
 Alpha virt. eigenvalues --    0.81955   0.83160   0.84196   0.87544   0.89342
 Alpha virt. eigenvalues --    0.91892   0.93640   0.95357   0.97622   0.97773
 Alpha virt. eigenvalues --    1.00672   1.02595   1.03150   1.03461   1.05098
 Alpha virt. eigenvalues --    1.06490   1.09270   1.09582   1.13245   1.14447
 Alpha virt. eigenvalues --    1.16356   1.20340   1.21586   1.23295   1.25331
 Alpha virt. eigenvalues --    1.26767   1.27879   1.30616   1.30896   1.32702
 Alpha virt. eigenvalues --    1.33193   1.34569   1.36759   1.37196   1.39321
 Alpha virt. eigenvalues --    1.40028   1.41073   1.42689   1.46083   1.47012
 Alpha virt. eigenvalues --    1.51268   1.52976   1.53702   1.58287   1.60645
 Alpha virt. eigenvalues --    1.61015   1.62487   1.63564   1.64621   1.66226
 Alpha virt. eigenvalues --    1.69640   1.74567   1.76609   1.81701   1.82672
 Alpha virt. eigenvalues --    1.91964   1.99439   2.03096   2.05414   2.06639
 Alpha virt. eigenvalues --    2.15389   2.22006   2.28367   2.33236   2.37868
 Alpha virt. eigenvalues --    2.41966   2.46493   2.48254   2.51097   2.54895
 Alpha virt. eigenvalues --    2.55919   2.59601   2.64606   2.65803   2.67263
 Alpha virt. eigenvalues --    2.71006   2.71512   2.71867   2.73146   2.78978
 Alpha virt. eigenvalues --    2.80406   2.83883   2.89224   2.90813   2.91364
 Alpha virt. eigenvalues --    2.92743   2.93341   2.94788   2.95612   2.97163
 Alpha virt. eigenvalues --    3.00194   3.01716   3.06048   3.09034   3.10460
 Alpha virt. eigenvalues --    3.11676   3.14004   3.14501   3.16435   3.17712
 Alpha virt. eigenvalues --    3.18305   3.21216   3.23736   3.25565   3.26758
 Alpha virt. eigenvalues --    3.27070   3.28627   3.32678   3.33594   3.34107
 Alpha virt. eigenvalues --    3.35948   3.39485   3.42026   3.42811   3.44848
 Alpha virt. eigenvalues --    3.48305   3.50444   3.51992   3.53297   3.54707
 Alpha virt. eigenvalues --    3.56546   3.57843   3.58373   3.60239   3.60847
 Alpha virt. eigenvalues --    3.62190   3.62913   3.67556   3.69582   3.70207
 Alpha virt. eigenvalues --    3.72832   3.76171   3.79948   3.80401   3.81328
 Alpha virt. eigenvalues --    3.81972   3.85389   3.86790   3.87444   3.88753
 Alpha virt. eigenvalues --    3.93690   3.94197   3.98122   4.00640   4.02428
 Alpha virt. eigenvalues --    4.03923   4.06658   4.09081   4.10832   4.11458
 Alpha virt. eigenvalues --    4.12519   4.13695   4.18441   4.20034   4.22345
 Alpha virt. eigenvalues --    4.22598   4.23770   4.27132   4.27681   4.29730
 Alpha virt. eigenvalues --    4.31322   4.31468   4.33520   4.33959   4.35710
 Alpha virt. eigenvalues --    4.40131   4.40652   4.42202   4.44527   4.46617
 Alpha virt. eigenvalues --    4.46863   4.48940   4.50201   4.52465   4.55219
 Alpha virt. eigenvalues --    4.57862   4.58452   4.68165   4.72936   4.76338
 Alpha virt. eigenvalues --    4.80911   4.85809   4.89298   4.91944   4.92709
 Alpha virt. eigenvalues --    4.94120   4.97773   4.98584   5.00882   5.01957
 Alpha virt. eigenvalues --    5.05393   5.08513   5.14174   5.20978   5.22661
 Alpha virt. eigenvalues --    5.24549   5.27605   5.28364   5.29216   5.29966
 Alpha virt. eigenvalues --    5.31146   5.36039   5.37549   5.38650   5.44199
 Alpha virt. eigenvalues --    5.44882   5.45042   5.47260   5.48457   5.51439
 Alpha virt. eigenvalues --    5.53391   5.54842   5.58726   5.60718   5.62268
 Alpha virt. eigenvalues --    5.64674   5.66250   5.71558   5.79966   5.87969
 Alpha virt. eigenvalues --    5.95478   6.02990   6.04589   6.05218   6.09846
 Alpha virt. eigenvalues --    6.12076   6.14952   6.17594   6.25953   6.39323
 Alpha virt. eigenvalues --    6.49954   6.57695   6.62533   6.81770   6.99141
 Alpha virt. eigenvalues --    7.05885   7.16511   7.29552   7.40624   7.63409
 Alpha virt. eigenvalues --    7.75504   7.82506   7.87581   8.09034  10.10936
 Alpha virt. eigenvalues --   11.22161  13.62431  13.98885  14.08218  14.17247
          Condensed to atoms (all electrons):
               1          2          3          4          5          6
     1  C    4.746937   0.347642  -0.024829  -0.029206   0.333762  -0.055038
     2  C    0.347642   4.919822   0.400146   0.402986  -0.060441  -0.000623
     3  H   -0.024829   0.400146   0.573272  -0.024504  -0.006258   0.012851
     4  H   -0.029206   0.402986  -0.024504   0.564169   0.004602  -0.001121
     5  O    0.333762  -0.060441  -0.006258   0.004602   7.942251   0.107261
     6  O   -0.055038  -0.000623   0.012851  -0.001121   0.107261   7.642899
     7  H    0.010550  -0.001299  -0.001195   0.000187  -0.027918   0.421115
     8  C    0.334990  -0.048074   0.008924  -0.005657  -0.041285   0.004962
     9  H   -0.029341   0.008164  -0.000324  -0.000197   0.001422  -0.000198
    10  H   -0.028713  -0.008520  -0.000231   0.003497   0.002258  -0.000278
    11  H   -0.037174  -0.000527  -0.000023   0.000077   0.002841  -0.000293
    12  C    0.334380  -0.078507  -0.009428   0.008140  -0.055867  -0.005861
    13  H   -0.031116   0.008353  -0.000034  -0.000453   0.004193  -0.000740
    14  H   -0.026003   0.001124   0.000258  -0.000264   0.003930   0.000351
    15  H   -0.031899  -0.007773   0.003348  -0.000049  -0.001478   0.000437
    16  H   -0.030485   0.404506  -0.032031  -0.028042   0.004021   0.000238
               7          8          9         10         11         12
     1  C    0.010550   0.334990  -0.029341  -0.028713  -0.037174   0.334380
     2  C   -0.001299  -0.048074   0.008164  -0.008520  -0.000527  -0.078507
     3  H   -0.001195   0.008924  -0.000324  -0.000231  -0.000023  -0.009428
     4  H    0.000187  -0.005657  -0.000197   0.003497   0.000077   0.008140
     5  O   -0.027918  -0.041285   0.001422   0.002258   0.002841  -0.055867
     6  O    0.421115   0.004962  -0.000198  -0.000278  -0.000293  -0.005861
     7  H    0.481238  -0.000806  -0.000009   0.000057   0.000151   0.007387
     8  C   -0.000806   4.881944   0.410579   0.409719   0.403795  -0.048862
     9  H   -0.000009   0.410579   0.563074  -0.025637  -0.029889  -0.008221
    10  H    0.000057   0.409719  -0.025637   0.558205  -0.028840   0.008217
    11  H    0.000151   0.403795  -0.029889  -0.028840   0.601416  -0.002540
    12  C    0.007387  -0.048862  -0.008221   0.008217  -0.002540   4.948459
    13  H    0.000126  -0.005551   0.003226  -0.000282   0.000500   0.406072
    14  H   -0.000184  -0.006318   0.000542  -0.000153  -0.000112   0.395889
    15  H    0.001599   0.008014  -0.000072  -0.000380  -0.000237   0.407575
    16  H   -0.000053  -0.008416  -0.000253   0.000558   0.000348   0.001461
              13         14         15         16
     1  C   -0.031116  -0.026003  -0.031899  -0.030485
     2  C    0.008353   0.001124  -0.007773   0.404506
     3  H   -0.000034   0.000258   0.003348  -0.032031
     4  H   -0.000453  -0.000264  -0.000049  -0.028042
     5  O    0.004193   0.003930  -0.001478   0.004021
     6  O   -0.000740   0.000351   0.000437   0.000238
     7  H    0.000126  -0.000184   0.001599  -0.000053
     8  C   -0.005551  -0.006318   0.008014  -0.008416
     9  H    0.003226   0.000542  -0.000072  -0.000253
    10  H   -0.000282  -0.000153  -0.000380   0.000558
    11  H    0.000500  -0.000112  -0.000237   0.000348
    12  C    0.406072   0.395889   0.407575   0.001461
    13  H    0.552331  -0.023091  -0.030081  -0.000219
    14  H   -0.023091   0.585777  -0.033894  -0.001447
    15  H   -0.030081  -0.033894   0.605443   0.000120
    16  H   -0.000219  -0.001447   0.000120   0.595542
 Mulliken charges:
               1
     1  C    0.215542
     2  C   -0.286979
     3  H    0.100057
     4  H    0.105835
     5  O   -0.213294
     6  O   -0.125962
     7  H    0.109055
     8  C   -0.297960
     9  H    0.107134
    10  H    0.110524
    11  H    0.090507
    12  C   -0.308292
    13  H    0.116765
    14  H    0.103593
    15  H    0.079325
    16  H    0.094151
 Sum of Mulliken charges =  -0.00000
 Mulliken charges with hydrogens summed into heavy atoms:
               1
     1  C    0.215542
     2  C    0.013064
     5  O   -0.213294
     6  O   -0.016907
     8  C    0.010205
    12  C   -0.008608
 Electronic spatial extent (au):  <R**2>=            605.3900
 Charge=             -0.0000 electrons
 Dipole moment (field-independent basis, Debye):
    X=              2.1293    Y=              1.0834    Z=              1.9815  Tot=              3.1039
 Quadrupole moment (field-independent basis, Debye-Ang):
   XX=            -40.4196   YY=            -37.6354   ZZ=            -38.9646
   XY=             -1.9159   XZ=             -3.1520   YZ=              0.2715
 Traceless Quadrupole moment (field-independent basis, Debye-Ang):
   XX=             -1.4131   YY=              1.3711   ZZ=              0.0419
   XY=             -1.9159   XZ=             -3.1520   YZ=              0.2715
 Octapole moment (field-independent basis, Debye-Ang**2):
  XXX=             -4.5085  YYY=             -1.3500  ZZZ=             -2.9940  XYY=             -3.8912
  XXY=              3.8593  XXZ=              5.2213  XZZ=             -2.9511  YZZ=              0.6967
  YYZ=             -2.5366  XYZ=             -0.4905
 Hexadecapole moment (field-independent basis, Debye-Ang**3):
 XXXX=           -366.9529 YYYY=           -216.5461 ZZZZ=           -210.7162 XXXY=             -5.9367
 XXXZ=             -3.3453 YYYX=             -1.1712 YYYZ=              0.7821 ZZZX=              0.6391
 ZZZY=              0.9443 XXYY=            -96.4123 XXZZ=            -90.7998 YYZZ=            -70.6327
 XXYZ=              3.3924 YYXZ=             -0.5943 ZZXY=              0.3859
 N-N= 2.720612115193D+02 E-N=-1.265793359754D+03  KE= 3.074693487822D+02
 No NMR shielding tensors so no spin-rotation constants.
 Leave Link  601 at Mon Jun 15 17:40:42 2020, MaxMem= 16106127360 cpu:        12.6
 (Enter /sw/contrib/gaussian/g09/E01/g09/l701.exe)
 Compute integral first derivatives.
 ... and contract with generalized density number  2.
 R6Disp: Adding Grimme-D3(BJ) dispersion energy 1st derivatives to the gradient.
 Leave Link  701 at Mon Jun 15 17:40:42 2020, MaxMem= 16106127360 cpu:        12.8
 (Enter /sw/contrib/gaussian/g09/E01/g09/l702.exe)
 L702 exits ... SP integral derivatives will be done elsewhere.
 Leave Link  702 at Mon Jun 15 17:40:42 2020, MaxMem= 16106127360 cpu:         0.4
 (Enter /sw/contrib/gaussian/g09/E01/g09/l703.exe)
 Compute integral first derivatives, UseDBF=F ICtDFT=           0.
 Integral derivatives from FoFJK, PRISM(SPDF).
 Calling FoFJK, ICntrl=  10002127 FMM=F ISym2X=0 I1Cent= 0 IOpClX= 0 NMat=1 NMatS=1 NMatT=0.
 FoFJK:  IHMeth= 1 ICntrl=10002127 DoSepK=F KAlg= 0 I1Cent=   0 FoldK=F
 IRaf=         0 NMat=   1 IRICut=       1 DoRegI=T DoRafI=F ISym2E= 0.
 FoFCou: FMM=F IPFlag=           0 FMFlag=      100000 FMFlg1=         800
         NFxFlg=           0 DoJE=F BraDBF=F KetDBF=F FulRan=T
         wScrn=  0.000000 ICntrl=10002127 IOpCl=  0 I1Cent=           0 NGrid=           0
         NMat0=    1 NMatS0=      1 NMatT0=    0 NMatD0=    1 NMtDS0=    0 NMtDT0=    0
 Symmetry not used in FoFCou.
 Leave Link  703 at Mon Jun 15 17:40:50 2020, MaxMem= 16106127360 cpu:       210.3
 (Enter /sw/contrib/gaussian/g09/E01/g09/l716.exe)
 Dipole        = 8.04411703D-01 4.16486934D-01 7.49908502D-01
 ***** Axes restored to original set *****
 -------------------------------------------------------------------
 Center     Atomic                   Forces (Hartrees/Bohr)
 Number     Number              X              Y              Z
 -------------------------------------------------------------------
      1        6           0.000308643   -0.000729396    0.003435885
      2        6           0.000105091    0.000358949    0.000031493
      3        1           0.000044059   -0.000148512   -0.000035130
      4        1          -0.000058756   -0.000007028    0.000070955
      5        8           0.003054016    0.000627261   -0.004741443
      6        8          -0.124029906    0.390272872   -0.023305084
      7        1           0.119998940   -0.391920619    0.024650626
      8        6           0.000119461    0.000719215   -0.000184135
      9        1          -0.000027733   -0.000029315    0.000010473
     10        1          -0.000118316    0.000009766   -0.000028668
     11        1           0.000247484   -0.000011143    0.000048293
     12        6           0.000887249   -0.000428191    0.000576632
     13        1          -0.000154353   -0.000043699   -0.000040642
     14        1          -0.000329948   -0.000057015   -0.000312909
     15        1          -0.000109369    0.001313838   -0.000073620
     16        1           0.000063436    0.000073017   -0.000102726
 -------------------------------------------------------------------
 Cartesian Forces:  Max     0.391920619 RMS     0.083777656
 -----------------------------------------------------------------------------------------------
                       Internal Coordinate Forces (Hartree/Bohr or radian)
  Cent   Atom   N1       Length/X         N2         Alpha/Y        N3         Beta/Z          J
 -----------------------------------------------------------------------------------------------
      1  C 
      2  C        1  -0.000035(     1)
      3  H        2   0.000028(     2)      1  -0.000100(    16)
      4  H        2   0.000046(     3)      1   0.000121(    17)      3   0.000105(    30)     0
      5  O        1  -0.000069(     4)      2  -0.000641(    18)      3  -0.000186(    31)     0
      6  O        5  -0.003627(     5)      1  -0.007147(    19)      2  -0.000307(    32)     0
      7  H        6   0.410588(     6)      5  -0.001647(    20)      1   0.007151(    33)     0
      8  C        1  -0.000090(     7)      5  -0.001436(    21)      6  -0.000272(    34)     0
      9  H        8  -0.000011(     8)      1   0.000051(    22)      5   0.000061(    35)     0
     10  H        8   0.000048(     9)      1   0.000229(    23)      5  -0.000028(    36)     0
     11  H        8  -0.000114(    10)      1  -0.000458(    24)      5  -0.000063(    37)     0
     12  C        1  -0.000567(    11)      5  -0.002781(    25)      6   0.001846(    38)     0
     13  H       12   0.000026(    12)      1  -0.000059(    26)      5  -0.000310(    39)     0
     14  H       12   0.000151(    13)      1  -0.000075(    27)      5   0.000835(    40)     0
     15  H       12  -0.000327(    14)      1  -0.002165(    28)      5  -0.001392(    41)     0
     16  H        2  -0.000125(    15)      1  -0.000130(    29)      5   0.000035(    42)     0
 -----------------------------------------------------------------------------------------------
 Internal  Forces:  Max     0.410587506 RMS     0.063381360
 Leave Link  716 at Mon Jun 15 17:40:50 2020, MaxMem= 16106127360 cpu:         1.1
 (Enter /sw/contrib/gaussian/g09/E01/g09/l103.exe)

 GradGradGradGradGradGradGradGradGradGradGradGradGradGradGradGradGradGrad
 Berny optimization.
 Search for a local minimum.
 Step number   1 out of a maximum of   52 on scan point     1 out of    28
 All quantities printed in internal units (Hartrees-Bohrs-Radians)
 Second derivative matrix not updated -- first step.
 ITU=  0
     Eigenvalues --- 1000.000001000.000001000.000001000.000001000.00000
     Eigenvalues --- 1000.000001000.000001000.000001000.000001000.00000
     Eigenvalues --- 1000.000001000.000001000.000001000.000001000.00000
     Eigenvalues --- 1000.000001000.000001000.000001000.000001000.00000
     Eigenvalues --- 1000.000001000.000001000.000001000.000001000.00000
     Eigenvalues --- 1000.000001000.000001000.000001000.000001000.00000
     Eigenvalues --- 1000.000001000.000001000.000001000.000001000.00000
     Eigenvalues --- 1000.000001000.000001000.000001000.000001000.00000
     Eigenvalues --- 1000.000001000.00000
 RFO step:  Lambda= 0.00000000D+00 EMin= 1.00000000D+03
 Linear search not attempted -- first point.
 Variable       Old X    -DE/DX   Delta X   Delta X   Delta X     New X
                                 (Linear)    (Quad)   (Total)
    B1        2.88215  -0.00004   0.00000   0.00000   0.00000   2.88215
    B2        2.05604   0.00003   0.00000   0.00000   0.00000   2.05604
    B3        2.05581   0.00005   0.00000   0.00000   0.00000   2.05581
    B4        2.72177  -0.00007   0.00000   0.00000   0.00000   2.72177
    B5        2.75562  -0.00363   0.00000   0.00000   0.00000   2.75562
    B6        1.44766   0.41059   0.00000   0.00000   0.00000   1.44766
    B7        2.87898  -0.00009   0.00000   0.00000   0.00000   2.87898
    B8        2.05597  -0.00001   0.00000   0.00000   0.00000   2.05597
    B9        2.05551   0.00005   0.00000   0.00000   0.00000   2.05551
   B10        2.05710  -0.00011   0.00000   0.00000   0.00000   2.05710
   B11        2.88837  -0.00057   0.00000   0.00000   0.00000   2.88837
   B12        2.05612   0.00003   0.00000   0.00000   0.00000   2.05612
   B13        2.05721   0.00015   0.00000   0.00000   0.00000   2.05721
   B14        2.06341  -0.00033   0.00000   0.00000   0.00000   2.06341
   B15        2.05855  -0.00012   0.00000   0.00000   0.00000   2.05855
    A1        1.94163  -0.00010   0.00000   0.00000   0.00000   1.94163
    A2        1.91958   0.00012   0.00000   0.00000   0.00000   1.91958
    A3        1.93153  -0.00064   0.00000   0.00000   0.00000   1.93153
    A4        1.95732  -0.00715   0.00000   0.00000   0.00000   1.95732
    A5        1.80372  -0.00165   0.00000   0.00000   0.00000   1.80372
    A6        1.77198  -0.00144   0.00000   0.00000   0.00000   1.77198
    A7        1.93000   0.00005   0.00000   0.00000   0.00000   1.93000
    A8        1.92269   0.00023   0.00000   0.00000   0.00000   1.92269
    A9        1.91618  -0.00046   0.00000   0.00000   0.00000   1.91618
   A10        1.93704  -0.00278   0.00000   0.00000   0.00000   1.93704
   A11        1.92633  -0.00006   0.00000   0.00000   0.00000   1.92633
   A12        1.91537  -0.00008   0.00000   0.00000   0.00000   1.91537
   A13        1.96869  -0.00216   0.00000   0.00000   0.00000   1.96869
   A14        1.92581  -0.00013   0.00000   0.00000   0.00000   1.92581
    D1        2.08977   0.00011   0.00000   0.00000   0.00000   2.08977
    D2       -1.09412  -0.00019   0.00000   0.00000   0.00000  -1.09412
    D3        1.08767  -0.00031   0.00000   0.00000   0.00000   1.08767
    D4        0.52360   0.00715   0.00000   0.00000   0.00000   0.52360
    D5       -3.13536  -0.00027   0.00000   0.00000   0.00000  -3.13536
    D6        1.07670   0.00006   0.00000   0.00000   0.00000   1.07670
    D7       -1.02069  -0.00003   0.00000   0.00000   0.00000  -1.02069
    D8        3.17291  -0.00006   0.00000   0.00000   0.00000   3.17291
    D9       -1.08863   0.00185   0.00000   0.00000   0.00000  -1.08863
   D10       -0.87515  -0.00031   0.00000   0.00000   0.00000  -0.87515
   D11       -2.96821   0.00083   0.00000   0.00000   0.00000  -2.96821
   D12        1.25092  -0.00139   0.00000   0.00000   0.00000   1.25092
   D13        3.09178   0.00004   0.00000   0.00000   0.00000   3.09178
         Item               Value     Threshold  Converged?
 Maximum Force            0.000000     0.000450     YES
 RMS     Force            0.000000     0.000300     YES
 Maximum Displacement     0.000000     0.001800     YES
 RMS     Displacement     0.000000     0.001200     YES
 Predicted change in Energy=-0.000000D+00
 Optimization completed.
    -- Stationary point found.
                       ----------------------------
                       !   Optimized Parameters   !
                       ! (Angstroms and Degrees)  !
 ----------------------                            ----------------------
 !      Name          Value   Derivative information (Atomic Units)     !
 ------------------------------------------------------------------------
 !       B1          1.5252   -DE/DX =    0.0                           !
 !       B2          1.088    -DE/DX =    0.0                           !
 !       B3          1.0879   -DE/DX =    0.0                           !
 !       B4          1.4403   -DE/DX =   -0.0001                        !
 !       B5          1.4582   -DE/DX =   -0.0036                        !
 !       B6          0.7661   -DE/DX =    0.4106                        !
 !       B7          1.5235   -DE/DX =   -0.0001                        !
 !       B8          1.088    -DE/DX =    0.0                           !
 !       B9          1.0877   -DE/DX =    0.0                           !
 !       B10         1.0886   -DE/DX =   -0.0001                        !
 !       B11         1.5285   -DE/DX =   -0.0006                        !
 !       B12         1.088    -DE/DX =    0.0                           !
 !       B13         1.0886   -DE/DX =    0.0002                        !
 !       B14         1.0919   -DE/DX =   -0.0003                        !
 !       B15         1.0893   -DE/DX =   -0.0001                        !
 !       A1        111.2471   -DE/DX =   -0.0001                        !
 !       A2        109.9839   -DE/DX =    0.0001                        !
 !       A3        110.6683   -DE/DX =   -0.0006                        !
 !       A4        112.146    -DE/DX =   -0.0071                        !
 !       A5        103.3454   -DE/DX =   -0.0016                        !
 !       A6        101.5268   -DE/DX =   -0.0014                        !
 !       A7        110.581    -DE/DX =    0.0001                        !
 !       A8        110.1621   -DE/DX =    0.0002                        !
 !       A9        109.7891   -DE/DX =   -0.0005                        !
 !       A10       110.984    -DE/DX =   -0.0028                        !
 !       A11       110.3705   -DE/DX =   -0.0001                        !
 !       A12       109.7429   -DE/DX =   -0.0001                        !
 !       A13       112.7978   -DE/DX =   -0.0022                        !
 !       A14       110.3407   -DE/DX =   -0.0001                        !
 !       D1        119.7353   -DE/DX =    0.0001                        !
 !       D2        -62.6884   -DE/DX =   -0.0002                        !
 !       D3         62.3189   -DE/DX =   -0.0003                        !
 !       D4         30.0      -DE/DX =    0.0072                        !
 !       D5       -179.6431   -DE/DX =   -0.0003                        !
 !       D6         61.6903   -DE/DX =    0.0001                        !
 !       D7        -58.4815   -DE/DX =    0.0                           !
 !       D8        181.7943   -DE/DX =   -0.0001                        !
 !       D9        -62.3741   -DE/DX =    0.0018                        !
 !       D10       -50.1425   -DE/DX =   -0.0003                        !
 !       D11      -170.0657   -DE/DX =    0.0008                        !
 !       D12        71.6723   -DE/DX =   -0.0014                        !
 !       D13       177.1461   -DE/DX =    0.0                           !
 ------------------------------------------------------------------------
 Lowest energy point so far.  Saving SCF results.
 GradGradGradGradGradGradGradGradGradGradGradGradGradGradGradGradGradGrad

 Leave Link  103 at Mon Jun 15 17:40:50 2020, MaxMem= 16106127360 cpu:         6.3
 (Enter /sw/contrib/gaussian/g09/E01/g09/l202.exe)
 ---------------------------------------------------------------------------------------------------
                            Z-MATRIX (ANGSTROMS AND DEGREES)
   CD    Cent   Atom    N1       Length/X        N2       Alpha/Y        N3        Beta/Z          J
 ---------------------------------------------------------------------------------------------------
      1      1  C 
      2      2  C        1   1.525170(     1)
      3      3  H        2   1.088010(     2)      1  111.247(    16)
      4      4  H        2   1.087890(     3)      1  109.984(    17)      3  119.735(    30)      0
      5      5  O        1   1.440300(     4)      2  110.668(    18)      3  -62.688(    31)      0
      6      6  O        5   1.458210(     5)      1  112.146(    19)      2   62.319(    32)      0
      7      7  H        6   0.786070(     6)      5  103.345(    20)      1   30.000(    33)      0
      8      8  C        1   1.523490(     7)      5  101.527(    21)      6 -179.643(    34)      0
      9      9  H        8   1.087970(     8)      1  110.581(    22)      5   61.690(    35)      0
     10     10  H        8   1.087730(     9)      1  110.162(    23)      5  -58.481(    36)      0
     11     11  H        8   1.088570(    10)      1  109.789(    24)      5  181.794(    37)      0
     12     12  C        1   1.528460(    11)      5  110.984(    25)      6  -62.374(    38)      0
     13     13  H       12   1.088050(    12)      1  110.370(    26)      5  -50.143(    39)      0
     14     14  H       12   1.088630(    13)      1  109.743(    27)      5 -170.066(    40)      0
     15     15  H       12   1.091910(    14)      1  112.798(    28)      5   71.672(    41)      0
     16     16  H        2   1.089340(    15)      1  110.341(    29)      5  177.146(    42)      0
 ---------------------------------------------------------------------------------------------------
                         Z-Matrix orientation:                         
 ---------------------------------------------------------------------
 Center     Atomic      Atomic             Coordinates (Angstroms)
 Number     Number       Type             X           Y           Z
 ---------------------------------------------------------------------
      1          6           0        0.000000    0.000000    0.000000
      2          6           0        0.000000    0.000000    1.525170
      3          1           0        1.014054    0.000000    1.919454
      4          1           0       -0.507097    0.887765    1.896963
      5          8           0        0.618320    1.197377   -0.508363
      6          8           0        2.018634    1.302350   -0.115328
      7          1           0        2.247751    0.552584   -0.058209
      8          6           0       -1.415018    0.131395   -0.549072
      9          1           0       -1.403765    0.141087   -1.636940
     10          1           0       -1.869602    1.054688   -0.196878
     11          1           0       -2.020765   -0.707661   -0.211374
     12          6           0        0.676051   -1.248151   -0.566802
     13          1           0        0.754789   -1.177540   -1.649699
     14          1           0        0.090495   -2.130404   -0.314077
     15          1           0        1.672907   -1.414110   -0.153277
     16          1           0       -0.513259   -0.883089    1.903827
 ---------------------------------------------------------------------
                    Distance matrix (angstroms):
                    1          2          3          4          5
     1  C    0.000000
     2  C    1.525170   0.000000
     3  H    2.170855   1.088010   0.000000
     4  H    2.154935   1.087890   1.761401   0.000000
     5  O    1.440300   2.439526   2.735802   2.673578   0.000000
     6  O    2.405057   2.908992   2.616417   3.255843   1.458210
     7  H    2.315410   2.804429   2.395518   3.394736   1.809266
     8  C    1.523490   2.514363   3.465729   2.716524   2.296179
     9  H    2.161027   3.462572   4.302755   3.721561   2.545243
    10  H    2.155583   2.751950   3.729169   2.503688   2.511401
    11  H    2.151501   2.756785   3.775095   3.046582   3.268355
    12  C    1.528460   2.528096   2.802427   3.468734   2.446907
    13  H    2.162826   3.469309   3.767317   4.293793   2.638466
    14  H    2.155331   2.815961   3.221839   3.788820   3.374977
    15  H    2.195864   2.759621   2.594226   3.775517   2.838680
    16  H    2.160518   1.089340   1.764306   1.770878   3.380454
                    6          7          8          9         10
     6  O    0.000000
     7  H    0.786070   0.000000
     8  C    3.653661   3.719439   0.000000
     9  H    3.921308   3.999412   1.087970   0.000000
    10  H    3.896969   4.150173   1.087730   1.767894   0.000000
    11  H    4.512883   4.453303   1.088570   1.770114   1.768880
    12  C    2.917432   2.443676   2.505201   2.720444   3.452573
    13  H    3.178279   2.784800   2.762745   2.529486   3.739112
    14  H    3.942210   3.452194   2.727183   3.023649   3.741728
    15  H    2.738635   2.051187   3.475705   3.753107   4.318129
    16  H    3.906867   3.678847   2.803402   3.791962   3.163480
                   11         12         13         14         15
    11  H    0.000000
    12  C    2.773315   0.000000
    13  H    3.161213   1.088050   0.000000
    14  H    2.547972   1.088630   1.770063   0.000000
    15  H    3.761072   1.091910   1.771493   1.744409   0.000000
    16  H    2.603349   2.766177   3.784468   2.615227   3.048439
                   16
    16  H    0.000000
 Stoichiometry    C4H10O2
 Framework group  C1[X(C4H10O2)]
 Deg. of freedom    42
 Full point group                 C1      NOp   1
 RotChk:  IX=0 Diff= 1.53D-02
 Largest Abelian subgroup         C1      NOp   1
 Largest concise Abelian subgroup C1      NOp   1
                         Standard orientation:                         
 ---------------------------------------------------------------------
 Center     Atomic      Atomic             Coordinates (Angstroms)
 Number     Number       Type             X           Y           Z
 ---------------------------------------------------------------------
      1          6           0        0.374942    0.001600    0.030034
      2          6           0        0.375229   -1.052084    1.132710
      3          1           0       -0.524387   -0.986364    1.741100
      4          1           0        0.415639   -2.047532    0.695726
      5          8           0       -0.726144   -0.209149   -0.874210
      6          8           0       -2.016886   -0.081115   -0.207901
      7          1           0       -1.874251    0.436798    0.365969
      8          6           0        1.569654   -0.175169   -0.898642
      9          1           0        1.554994    0.573935   -1.687507
     10          1           0        1.547078   -1.162358   -1.354826
     11          1           0        2.494243   -0.072186   -0.333386
     12          6           0        0.350859    1.419297    0.600776
     13          1           0        0.248222    2.148388   -0.200314
     14          1           0        1.277447    1.615427    1.137509
     15          1           0       -0.456930    1.572454    1.319307
     16          1           0        1.238083   -0.918313    1.784054
 ---------------------------------------------------------------------
 Rotational constants (GHZ):      4.4665141      2.7702800      2.7560690
 Leave Link  202 at Mon Jun 15 17:40:50 2020, MaxMem= 16106127360 cpu:         0.3
 (Enter /sw/contrib/gaussian/g09/E01/g09/l301.exe)
 Standard basis: CC-pVTZ (5D, 7F)
 Ernie: Thresh=  0.10000D-02 Tol=  0.10000D-05 Strict=F.
 Ernie:  18 primitive shells out of 236 were deleted.
 There are   360 symmetry adapted cartesian basis functions of A   symmetry.
 There are   320 symmetry adapted basis functions of A   symmetry.
   320 basis functions,   482 primitive gaussians,   360 cartesian basis functions
    25 alpha electrons       25 beta electrons
       nuclear repulsion energy       271.9204507385 Hartrees.
 IExCor=  419 DFT=T Ex+Corr=B2PLYPD3 ExCW=0 ScaHFX=  0.530000
 ScaDFX=  0.470000  0.470000  0.730000  0.730000 ScalE2=  0.270000  0.270000
 IRadAn=      5 IRanWt=     -1 IRanGd=            0 ICorTp=0 IEmpDi=141
 NAtoms=   16 NActive=   16 NUniq=   16 SFac= 1.00D+00 NAtFMM=   60 NAOKFM=F Big=F
 Integral buffers will be    131072 words long.
 Regular integral format.
 Two-electron integral symmetry is turned on.
 R6Disp:  Grimme-D3(BJ) Dispersion energy=       -0.0091686172 Hartrees.
 Nuclear repulsion after empirical dispersion term =      271.9112821212 Hartrees.
 Leave Link  301 at Mon Jun 15 17:40:50 2020, MaxMem= 16106127360 cpu:         1.1
 (Enter /sw/contrib/gaussian/g09/E01/g09/l302.exe)
 NPDir=0 NMtPBC=     1 NCelOv=     1 NCel=       1 NClECP=     1 NCelD=      1
         NCelK=      1 NCelE2=     1 NClLst=     1 CellRange=     0.0.
 One-electron integrals computed using PRISM.
 NBasis=   320 RedAO= T EigKep=  5.40D-04  NBF=   320
 NBsUse=   320 1.00D-06 EigRej= -1.00D+00 NBFU=   320
 Precomputing XC quadrature grid using
 IXCGrd= 4 IRadAn=           5 IRanWt=          -1 IRanGd=           0 AccXCQ= 0.00D+00.
 Generated NRdTot=       0 NPtTot=           0 NUsed=           0 NTot=          32
 NSgBfM=   360   360   360   360   360 MxSgAt=    16 MxSgA2=    16.
 Leave Link  302 at Mon Jun 15 17:40:50 2020, MaxMem= 16106127360 cpu:        12.6
 (Enter /sw/contrib/gaussian/g09/E01/g09/l303.exe)
 DipDrv:  MaxL=1.
 Leave Link  303 at Mon Jun 15 17:40:51 2020, MaxMem= 16106127360 cpu:         0.9
 (Enter /sw/contrib/gaussian/g09/E01/g09/l401.exe)
 Initial guess from the checkpoint file:  "/gscratch/ilahie/mccoygrp/data/TBHP/tbhp_030.chk"
 B after Tr=    -0.000000    0.000000   -0.000000
         Rot=    0.999985    0.005390    0.000225   -0.000204 Ang=   0.62 deg.
 Guess basis will be translated and rotated to current coordinates.
 JPrj=2 DoOrth=T DoCkMO=T.
 Generating alternative initial guess.
 ExpMin= 1.03D-01 ExpMax= 1.53D+04 ExpMxC= 5.22D+02 IAcc=2 IRadAn=         4 AccDes= 0.00D+00
 Harris functional with IExCor=  419 and IRadAn=       4 diagonalized for initial guess.
 HarFok:  IExCor=  419 AccDes= 0.00D+00 IRadAn=         4 IDoV= 1 UseB2=F ITyADJ=14
 ICtDFT=  3500011 ScaDFX=  1.000000  1.000000  1.000000  1.000000
 FoFCou: FMM=F IPFlag=           0 FMFlag=      100000 FMFlg1=           0
         NFxFlg=           0 DoJE=T BraDBF=F KetDBF=T FulRan=T
         wScrn=  0.000000 ICntrl=     500 IOpCl=  0 I1Cent=   200000004 NGrid=           0
         NMat0=    1 NMatS0=      1 NMatT0=    0 NMatD0=    1 NMtDS0=    0 NMtDT0=    0
 Petite list used in FoFCou.
 Harris En= -308.968988826199    
 Leave Link  401 at Mon Jun 15 17:40:51 2020, MaxMem= 16106127360 cpu:        24.5
 (Enter /sw/contrib/gaussian/g09/E01/g09/l502.exe)
 Closed shell SCF:
 Using DIIS extrapolation, IDIIS=  1040.
 Integral symmetry usage will be decided dynamically.
 Keep R1 ints in memory in canonical form, NReq=1342893302.
 IVT=      420062 IEndB=      420062 NGot= 16106127360 MDV= 14786756819
 LenX= 14786756819 LenY= 14786626778
 Requested convergence on RMS density matrix=1.00D-08 within 128 cycles.
 Requested convergence on MAX density matrix=1.00D-06.
 Requested convergence on             energy=1.00D-06.
 No special actions if energy rises.
 FoFCou: FMM=F IPFlag=           0 FMFlag=           0 FMFlg1=           0
         NFxFlg=           0 DoJE=F BraDBF=F KetDBF=F FulRan=T
         wScrn=  0.000000 ICntrl=     600 IOpCl=  0 I1Cent=           0 NGrid=           0
         NMat0=    1 NMatS0=  51360 NMatT0=    0 NMatD0=    1 NMtDS0=    0 NMtDT0=    0
 Symmetry not used in FoFCou.
 Integral accuracy reduced to 1.0D-05 until final iterations.

 Cycle   1  Pass 0  IDiag  1:
 E= -308.237787206030    
 DIIS: error= 1.62D-03 at cycle   1 NSaved=   1.
 NSaved= 1 IEnMin= 1 EnMin= -308.237787206030     IErMin= 1 ErrMin= 1.62D-03
 ErrMax= 1.62D-03  0.00D+00 EMaxC= 1.00D-01 BMatC= 3.62D-04 BMatP= 3.62D-04
 IDIUse=3 WtCom= 9.84D-01 WtEn= 1.62D-02
 Coeff-Com:  0.100D+01
 Coeff-En:   0.100D+01
 Coeff:      0.100D+01
 Gap=     0.816 Goal=   None    Shift=    0.000
 GapD=    0.816 DampG=2.000 DampE=1.000 DampFc=2.0000 IDamp=-1.
 RMSDP=3.96D-05 MaxDP=3.25D-03              OVMax= 2.94D-03

 Cycle   2  Pass 0  IDiag  1:
 E= -308.237976911131     Delta-E=       -0.000189705101 Rises=F Damp=F
 DIIS: error= 3.50D-04 at cycle   2 NSaved=   2.
 NSaved= 2 IEnMin= 2 EnMin= -308.237976911131     IErMin= 2 ErrMin= 3.50D-04
 ErrMax= 3.50D-04  0.00D+00 EMaxC= 1.00D-01 BMatC= 3.14D-05 BMatP= 3.62D-04
 IDIUse=3 WtCom= 9.97D-01 WtEn= 3.50D-03
 Coeff-Com:  0.123D+00 0.877D+00
 Coeff-En:   0.000D+00 0.100D+01
 Coeff:      0.122D+00 0.878D+00
 Gap=     0.396 Goal=   None    Shift=    0.000
 RMSDP=1.72D-05 MaxDP=8.90D-04 DE=-1.90D-04 OVMax= 1.35D-03

 Cycle   3  Pass 0  IDiag  1:
 E= -308.237980867535     Delta-E=       -0.000003956404 Rises=F Damp=F
 DIIS: error= 3.07D-04 at cycle   3 NSaved=   3.
 NSaved= 3 IEnMin= 3 EnMin= -308.237980867535     IErMin= 3 ErrMin= 3.07D-04
 ErrMax= 3.07D-04  0.00D+00 EMaxC= 1.00D-01 BMatC= 2.65D-05 BMatP= 3.14D-05
 IDIUse=3 WtCom= 9.97D-01 WtEn= 3.07D-03
 Coeff-Com:  0.358D-02 0.477D+00 0.519D+00
 Coeff-En:   0.000D+00 0.447D+00 0.553D+00
 Coeff:      0.357D-02 0.477D+00 0.519D+00
 Gap=     0.396 Goal=   None    Shift=    0.000
 RMSDP=8.34D-06 MaxDP=4.22D-04 DE=-3.96D-06 OVMax= 7.24D-04

 Initial convergence to 1.0D-05 achieved.  Increase integral accuracy.
 Cycle   4  Pass 1  IDiag  1:
 E= -308.237994798308     Delta-E=       -0.000013930773 Rises=F Damp=F
 DIIS: error= 3.89D-05 at cycle   1 NSaved=   1.
 NSaved= 1 IEnMin= 1 EnMin= -308.237994798308     IErMin= 1 ErrMin= 3.89D-05
 ErrMax= 3.89D-05  0.00D+00 EMaxC= 1.00D-01 BMatC= 6.38D-07 BMatP= 6.38D-07
 IDIUse=1 WtCom= 1.00D+00 WtEn= 0.00D+00
 Coeff-Com:  0.100D+01
 Coeff:      0.100D+01
 Gap=     0.395 Goal=   None    Shift=    0.000
 RMSDP=8.34D-06 MaxDP=4.22D-04 DE=-1.39D-05 OVMax= 2.56D-04

 Cycle   5  Pass 1  IDiag  1:
 E= -308.237994587268     Delta-E=        0.000000211040 Rises=F Damp=F
 DIIS: error= 4.75D-05 at cycle   2 NSaved=   2.
 NSaved= 2 IEnMin= 1 EnMin= -308.237994798308     IErMin= 1 ErrMin= 3.89D-05
 ErrMax= 4.75D-05  0.00D+00 EMaxC= 1.00D-01 BMatC= 1.04D-06 BMatP= 6.38D-07
 IDIUse=1 WtCom= 1.00D+00 WtEn= 0.00D+00
 Coeff-Com:  0.562D+00 0.438D+00
 Coeff:      0.562D+00 0.438D+00
 Gap=     0.395 Goal=   None    Shift=    0.000
 RMSDP=1.66D-06 MaxDP=8.59D-05 DE= 2.11D-07 OVMax= 1.53D-04

 Cycle   6  Pass 1  IDiag  1:
 E= -308.237995261867     Delta-E=       -0.000000674599 Rises=F Damp=F
 DIIS: error= 6.48D-06 at cycle   3 NSaved=   3.
 NSaved= 3 IEnMin= 3 EnMin= -308.237995261867     IErMin= 3 ErrMin= 6.48D-06
 ErrMax= 6.48D-06  0.00D+00 EMaxC= 1.00D-01 BMatC= 8.31D-09 BMatP= 6.38D-07
 IDIUse=1 WtCom= 1.00D+00 WtEn= 0.00D+00
 Coeff-Com:  0.129D+00 0.131D+00 0.740D+00
 Coeff:      0.129D+00 0.131D+00 0.740D+00
 Gap=     0.396 Goal=   None    Shift=    0.000
 RMSDP=2.37D-07 MaxDP=1.10D-05 DE=-6.75D-07 OVMax= 1.75D-05

 Cycle   7  Pass 1  IDiag  1:
 E= -308.237995268199     Delta-E=       -0.000000006332 Rises=F Damp=F
 DIIS: error= 1.40D-06 at cycle   4 NSaved=   4.
 NSaved= 4 IEnMin= 4 EnMin= -308.237995268199     IErMin= 4 ErrMin= 1.40D-06
 ErrMax= 1.40D-06  0.00D+00 EMaxC= 1.00D-01 BMatC= 8.30D-10 BMatP= 8.31D-09
 IDIUse=1 WtCom= 1.00D+00 WtEn= 0.00D+00
[...]
     5  O    1.440300   2.439526   2.735802   2.673578   0.000000
     6  O    2.405057   2.908992   2.616417   3.255843   1.458210
     7  H    2.400071   2.854607   2.384382   3.579727   2.170577
     8  C    1.523490   2.514363   3.465729   2.716524   2.296179
     9  H    2.161027   3.462572   4.302755   3.721561   2.545243
    10  H    2.155583   2.751950   3.729169   2.503688   2.511401
    11  H    2.151501   2.756785   3.775095   3.046582   3.268355
    12  C    1.528460   2.528096   2.802427   3.468734   2.446907
    13  H    2.162826   3.469309   3.767317   4.293793   2.638466
    14  H    2.155331   2.815961   3.221839   3.788820   3.374977
    15  H    2.195864   2.759621   2.594226   3.775517   2.838680
    16  H    2.160518   1.089340   1.764306   1.770878   3.380454
                    6          7          8          9         10
     6  O    0.000000
     7  H    1.306070   0.000000
     8  C    3.653661   3.851521   0.000000
     9  H    3.921308   4.133243   1.087970   0.000000
    10  H    3.896969   4.387593   1.087730   1.767894   0.000000
    11  H    4.512883   4.489730   1.088570   1.770114   1.768880
    12  C    2.917432   2.229472   2.505201   2.720444   3.452573
    13  H    3.178279   2.623378   2.762745   2.529486   3.739112
    14  H    3.942210   3.193724   2.727183   3.023649   3.741728
    15  H    2.738635   1.645693   3.475705   3.753107   4.318129
    16  H    3.906867   3.615086   2.803402   3.791962   3.163480
                   11         12         13         14         15
    11  H    0.000000
    12  C    2.773315   0.000000
    13  H    3.161213   1.088050   0.000000
    14  H    2.547972   1.088630   1.770063   0.000000
    15  H    3.761072   1.091910   1.771493   1.744409   0.000000
    16  H    2.603349   2.766177   3.784468   2.615227   3.048439
                   16
    16  H    0.000000
 Stoichiometry    C4H10O2
 Framework group  C1[X(C4H10O2)]
 Deg. of freedom    42
 Full point group                 C1      NOp   1
 RotChk:  IX=0 Diff= 3.33D-16
 Largest Abelian subgroup         C1      NOp   1
 Largest concise Abelian subgroup C1      NOp   1
                         Standard orientation:                         
 ---------------------------------------------------------------------
 Center     Atomic      Atomic             Coordinates (Angstroms)
 Number     Number       Type             X           Y           Z
 ---------------------------------------------------------------------
      1          6           0        0.372623    0.010555    0.027243
      2          6           0        0.370398   -0.618346    1.416712
      3          1           0       -0.541065   -0.374398    1.958460
      4          1           0        0.435230   -1.701208    1.334795
      5          8           0       -0.708243   -0.511489   -0.768787
      6          8           0       -2.012798   -0.198053   -0.197587
      7          1           0       -1.807438    0.934548    0.419552
      8          6           0        1.586741   -0.437803   -0.776445
      9          1           0        1.573960    0.007360   -1.769091
     10          1           0        1.588817   -1.520596   -0.879944
     11          1           0        2.499096   -0.133479   -0.266563
     12          6           0        0.314684    1.536385    0.095613
     13          1           0        0.214506    1.956716   -0.902956
     14          1           0        1.228009    1.919180    0.547742
     15          1           0       -0.508428    1.901272    0.713361
     16          1           0        1.218965   -0.257811    1.996893
 ---------------------------------------------------------------------
 Rotational constants (GHZ):      4.4291350      2.7759952      2.7484130
 Leave Link  202 at Mon Jun 15 19:19:11 2020, MaxMem= 16106127360 cpu:         0.3
 (Enter /sw/contrib/gaussian/g09/E01/g09/l601.exe)
 Copying SCF densities to generalized density rwf, IOpCl= 0 IROHF=0.

 **********************************************************************

            Population analysis using the SCF density.

 **********************************************************************

 Orbital symmetries:
       Occupied  (A) (A) (A) (A) (A) (A) (A) (A) (A) (A) (A) (A)
                 (A) (A) (A) (A) (A) (A) (A) (A) (A) (A) (A) (A)
                 (A)
       Virtual   (A) (A) (A) (A) (A) (A) (A) (A) (A) (A) (A) (A)
                 (A) (A) (A) (A) (A) (A) (A) (A) (A) (A) (A) (A)
                 (A) (A) (A) (A) (A) (A) (A) (A) (A) (A) (A) (A)
                 (A) (A) (A) (A) (A) (A) (A) (A) (A) (A) (A) (A)
                 (A) (A) (A) (A) (A) (A) (A) (A) (A) (A) (A) (A)
                 (A) (A) (A) (A) (A) (A) (A) (A) (A) (A) (A) (A)
                 (A) (A) (A) (A) (A) (A) (A) (A) (A) (A) (A) (A)
                 (A) (A) (A) (A) (A) (A) (A) (A) (A) (A) (A) (A)
                 (A) (A) (A) (A) (A) (A) (A) (A) (A) (A) (A) (A)
                 (A) (A) (A) (A) (A) (A) (A) (A) (A) (A) (A) (A)
                 (A) (A) (A) (A) (A) (A) (A) (A) (A) (A) (A) (A)
                 (A) (A) (A) (A) (A) (A) (A) (A) (A) (A) (A) (A)
                 (A) (A) (A) (A) (A) (A) (A) (A) (A) (A) (A) (A)
                 (A) (A) (A) (A) (A) (A) (A) (A) (A) (A) (A) (A)
                 (A) (A) (A) (A) (A) (A) (A) (A) (A) (A) (A) (A)
                 (A) (A) (A) (A) (A) (A) (A) (A) (A) (A) (A) (A)
                 (A) (A) (A) (A) (A) (A) (A) (A) (A) (A) (A) (A)
                 (A) (A) (A) (A) (A) (A) (A) (A) (A) (A) (A) (A)
                 (A) (A) (A) (A) (A) (A) (A) (A) (A) (A) (A) (A)
                 (A) (A) (A) (A) (A) (A) (A) (A) (A) (A) (A) (A)
                 (A) (A) (A) (A) (A) (A) (A) (A) (A) (A) (A) (A)
                 (A) (A) (A) (A) (A) (A) (A) (A) (A) (A) (A) (A)
                 (A) (A) (A) (A) (A) (A) (A) (A) (A) (A) (A) (A)
                 (A) (A) (A) (A) (A) (A) (A) (A) (A) (A) (A) (A)
                 (A) (A) (A) (A) (A) (A) (A)
 The electronic state is 1-A.
 Alpha  occ. eigenvalues --  -19.78928 -19.77344 -10.68633 -10.62509 -10.61033
 Alpha  occ. eigenvalues --  -10.60728  -1.23243  -1.01229  -0.90091  -0.81547
 Alpha  occ. eigenvalues --   -0.80516  -0.65206  -0.57793  -0.54516  -0.54368
 Alpha  occ. eigenvalues --   -0.50189  -0.49128  -0.46878  -0.44883  -0.44760
 Alpha  occ. eigenvalues --   -0.44215  -0.41156  -0.40255  -0.38660  -0.31618
 Alpha virt. eigenvalues --    0.02082   0.07567   0.11161   0.12014   0.12544
 Alpha virt. eigenvalues --    0.13934   0.14401   0.15689   0.17847   0.18571
 Alpha virt. eigenvalues --    0.19463   0.20418   0.23030   0.24267   0.25874
 Alpha virt. eigenvalues --    0.29960   0.30566   0.31693   0.34466   0.37669
 Alpha virt. eigenvalues --    0.39041   0.41566   0.41945   0.44957   0.46070
 Alpha virt. eigenvalues --    0.48092   0.51191   0.51561   0.51961   0.52947
 Alpha virt. eigenvalues --    0.53085   0.53549   0.54461   0.55149   0.55721
 Alpha virt. eigenvalues --    0.56311   0.58163   0.58593   0.66077   0.67361
 Alpha virt. eigenvalues --    0.69050   0.72247   0.75015   0.78360   0.79281
 Alpha virt. eigenvalues --    0.81468   0.82927   0.84436   0.86107   0.87393
 Alpha virt. eigenvalues --    0.91431   0.92431   0.94845   0.96105   0.97789
 Alpha virt. eigenvalues --    1.00712   1.01512   1.02522   1.03722   1.05311
 Alpha virt. eigenvalues --    1.05882   1.08474   1.10376   1.12300   1.13748
 Alpha virt. eigenvalues --    1.16233   1.18775   1.21475   1.22561   1.25972
 Alpha virt. eigenvalues --    1.27771   1.28648   1.30335   1.30814   1.31771
 Alpha virt. eigenvalues --    1.33138   1.34582   1.36125   1.37207   1.39066
 Alpha virt. eigenvalues --    1.39449   1.40851   1.44208   1.45584   1.47179
 Alpha virt. eigenvalues --    1.47625   1.50048   1.56100   1.57108   1.58247
 Alpha virt. eigenvalues --    1.60392   1.60917   1.62615   1.64215   1.65823
 Alpha virt. eigenvalues --    1.66437   1.70370   1.74926   1.78900   1.81297
 Alpha virt. eigenvalues --    1.86998   1.88528   2.03582   2.04614   2.13236
 Alpha virt. eigenvalues --    2.21163   2.21962   2.29410   2.33068   2.36831
 Alpha virt. eigenvalues --    2.38633   2.46397   2.47469   2.52231   2.53755
 Alpha virt. eigenvalues --    2.55425   2.57887   2.63716   2.65624   2.66279
 Alpha virt. eigenvalues --    2.68917   2.69966   2.71283   2.73196   2.73836
 Alpha virt. eigenvalues --    2.80702   2.83051   2.84726   2.89255   2.91072
 Alpha virt. eigenvalues --    2.92397   2.93079   2.93544   2.95372   2.96875
 Alpha virt. eigenvalues --    2.99338   3.01143   3.05343   3.08442   3.09816
 Alpha virt. eigenvalues --    3.10354   3.13031   3.14210   3.15283   3.16695
 Alpha virt. eigenvalues --    3.18078   3.20562   3.22554   3.24683   3.26017
 Alpha virt. eigenvalues --    3.26405   3.28038   3.30969   3.31510   3.32687
 Alpha virt. eigenvalues --    3.33889   3.36823   3.39270   3.40679   3.42131
 Alpha virt. eigenvalues --    3.43382   3.44945   3.46297   3.49145   3.51779
 Alpha virt. eigenvalues --    3.53427   3.56516   3.57197   3.58112   3.58431
 Alpha virt. eigenvalues --    3.58866   3.60333   3.63251   3.65201   3.67933
 Alpha virt. eigenvalues --    3.69246   3.72197   3.73399   3.78207   3.80537
 Alpha virt. eigenvalues --    3.81515   3.82360   3.83167   3.84951   3.86384
 Alpha virt. eigenvalues --    3.88664   3.92245   3.92539   3.97939   3.98613
 Alpha virt. eigenvalues --    4.00502   4.01886   4.02773   4.06111   4.08273
 Alpha virt. eigenvalues --    4.09898   4.12873   4.12958   4.15263   4.16676
 Alpha virt. eigenvalues --    4.17860   4.20498   4.22893   4.23248   4.27229
 Alpha virt. eigenvalues --    4.27790   4.30073   4.31432   4.32169   4.33811
 Alpha virt. eigenvalues --    4.34874   4.36400   4.40047   4.40290   4.43209
 Alpha virt. eigenvalues --    4.44490   4.46765   4.48780   4.50401   4.52557
 Alpha virt. eigenvalues --    4.56322   4.58770   4.59847   4.70761   4.76059
 Alpha virt. eigenvalues --    4.76934   4.81454   4.84191   4.88520   4.92677
 Alpha virt. eigenvalues --    4.93878   4.94963   4.97326   4.98975   5.00851
 Alpha virt. eigenvalues --    5.02784   5.05893   5.07804   5.13796   5.14954
 Alpha virt. eigenvalues --    5.19249   5.21757   5.25491   5.27063   5.28896
 Alpha virt. eigenvalues --    5.29570   5.30314   5.34130   5.36791   5.38653
 Alpha virt. eigenvalues --    5.39645   5.41045   5.44330   5.45503   5.47798
 Alpha virt. eigenvalues --    5.47966   5.51279   5.53796   5.55130   5.58007
 Alpha virt. eigenvalues --    5.58716   5.64083   5.64793   5.66198   5.70076
 Alpha virt. eigenvalues --    5.75977   5.80655   5.95603   6.02814   6.04071
 Alpha virt. eigenvalues --    6.05003   6.09406   6.12131   6.13749   6.17490
 Alpha virt. eigenvalues --    6.25263   6.29167   6.39720   6.54645   6.60577
 Alpha virt. eigenvalues --    6.69905   6.83256   7.01132   7.08898   7.14553
 Alpha virt. eigenvalues --    7.27371   7.42018   7.50328   7.82587   9.61469
 Alpha virt. eigenvalues --   10.13489  11.25028  13.95175  14.03491  14.08252
          Condensed to atoms (all electrons):
               1          2          3          4          5          6
     1  C    4.760109   0.344019  -0.025242  -0.028636   0.341827  -0.056943
     2  C    0.344019   4.928511   0.399896   0.401351  -0.063017  -0.004669
     3  H   -0.025242   0.399896   0.572920  -0.023554  -0.006363   0.013836
     4  H   -0.028636   0.401351  -0.023554   0.563829   0.004852  -0.000890
     5  O    0.341827  -0.063017  -0.006363   0.004852   7.939366   0.096482
     6  O   -0.056943  -0.004669   0.013836  -0.000890   0.096482   7.986357
     7  H   -0.014073  -0.006426  -0.002029   0.000695  -0.030732   0.264324
     8  C    0.337184  -0.044734   0.008833  -0.005817  -0.040461   0.003900
     9  H   -0.029952   0.008167  -0.000317  -0.000195   0.001396  -0.000163
    10  H   -0.028795  -0.008729  -0.000241   0.003580   0.002523  -0.000274
    11  H   -0.039278  -0.000278  -0.000021   0.000012   0.002838  -0.000292
    12  C    0.329085  -0.077681  -0.009768   0.008126  -0.054698  -0.009705
    13  H   -0.030972   0.008227  -0.000030  -0.000445   0.004054  -0.000469
    14  H   -0.026234   0.001119   0.000174  -0.000238   0.003612   0.000609
    15  H   -0.033137  -0.006896   0.003716  -0.000090   0.000406  -0.002926
    16  H   -0.031365   0.405471  -0.033246  -0.028286   0.004020   0.000171
               7          8          9         10         11         12
     1  C   -0.014073   0.337184  -0.029952  -0.028795  -0.039278   0.329085
     2  C   -0.006426  -0.044734   0.008167  -0.008729  -0.000278  -0.077681
     3  H   -0.002029   0.008833  -0.000317  -0.000241  -0.000021  -0.009768
     4  H    0.000695  -0.005817  -0.000195   0.003580   0.000012   0.008126
     5  O   -0.030732  -0.040461   0.001396   0.002523   0.002838  -0.054698
     6  O    0.264324   0.003900  -0.000163  -0.000274  -0.000292  -0.009705
     7  H    0.517349  -0.000339  -0.000069   0.000157   0.000137   0.011032
     8  C   -0.000339   4.875868   0.411381   0.409549   0.404796  -0.049387
     9  H   -0.000069   0.411381   0.564714  -0.025535  -0.030523  -0.008256
    10  H    0.000157   0.409549  -0.025535   0.557885  -0.028812   0.008367
    11  H    0.000137   0.404796  -0.030523  -0.028812   0.604538  -0.002479
    12  C    0.011032  -0.049387  -0.008256   0.008367  -0.002479   4.945416
    13  H   -0.000285  -0.004901   0.003115  -0.000252   0.000554   0.408327
    14  H   -0.000110  -0.005560   0.000478  -0.000131   0.000092   0.398903
    15  H    0.009613   0.007621  -0.000044  -0.000419  -0.000388   0.396783
    16  H   -0.000203  -0.009004  -0.000269   0.000563   0.000583   0.001844
              13         14         15         16
     1  C   -0.030972  -0.026234  -0.033137  -0.031365
     2  C    0.008227   0.001119  -0.006896   0.405471
     3  H   -0.000030   0.000174   0.003716  -0.033246
     4  H   -0.000445  -0.000238  -0.000090  -0.028286
     5  O    0.004054   0.003612   0.000406   0.004020
     6  O   -0.000469   0.000609  -0.002926   0.000171
     7  H   -0.000285  -0.000110   0.009613  -0.000203
     8  C   -0.004901  -0.005560   0.007621  -0.009004
     9  H    0.003115   0.000478  -0.000044  -0.000269
    10  H   -0.000252  -0.000131  -0.000419   0.000563
    11  H    0.000554   0.000092  -0.000388   0.000583
    12  C    0.408327   0.398903   0.396783   0.001844
    13  H    0.544722  -0.022017  -0.031159  -0.000225
    14  H   -0.022017   0.575785  -0.034417  -0.001398
    15  H   -0.031159  -0.034417   0.635722   0.000035
    16  H   -0.000225  -0.001398   0.000035   0.599027
 Mulliken charges:
               1
     1  C    0.232404
     2  C   -0.284332
     3  H    0.101436
     4  H    0.105707
     5  O   -0.206104
     6  O   -0.289349
     7  H    0.250960
     8  C   -0.298928
     9  H    0.106073
    10  H    0.110565
    11  H    0.088521
    12  C   -0.295910
    13  H    0.121757
    14  H    0.109334
    15  H    0.055580
    16  H    0.092285
 Sum of Mulliken charges =  -0.00000
 Mulliken charges with hydrogens summed into heavy atoms:
               1
     1  C    0.232404
     2  C    0.015096
     5  O   -0.206104
     6  O   -0.038388
     8  C    0.006231
    12  C   -0.009238
 Electronic spatial extent (au):  <R**2>=            607.4250
 Charge=             -0.0000 electrons
 Dipole moment (field-independent basis, Debye):
    X=              2.1694    Y=              2.0936    Z=              1.6645  Tot=              3.4438
 Quadrupole moment (field-independent basis, Debye-Ang):
   XX=            -40.9617   YY=            -37.0589   ZZ=            -39.3505
   XY=             -3.1227   XZ=             -2.5726   YZ=              0.1554
 Traceless Quadrupole moment (field-independent basis, Debye-Ang):
   XX=             -1.8380   YY=              2.0648   ZZ=             -0.2268
   XY=             -3.1227   XZ=             -2.5726   YZ=              0.1554
 Octapole moment (field-independent basis, Debye-Ang**2):
  XXX=             -2.4621  YYY=             -2.5664  ZZZ=             -4.1530  XYY=             -4.4121
  XXY=              5.5429  XXZ=              3.8239  XZZ=             -2.2466  YZZ=              0.9486
  YYZ=             -0.6355  XYZ=             -0.8024
 Hexadecapole moment (field-independent basis, Debye-Ang**3):
 XXXX=           -375.4286 YYYY=           -216.1803 ZZZZ=           -214.0422 XXXY=             -4.7342
 XXXZ=             -1.1659 YYYX=             -1.6076 YYYZ=              1.8004 ZZZX=              0.1065
 ZZZY=              0.5474 XXYY=            -92.5343 XXZZ=            -94.8769 YYZZ=            -71.2332
 XXYZ=              5.8083 YYXZ=             -0.4664 ZZXY=              0.7835
 N-N= 2.694755584888D+02 E-N=-1.260350486930D+03  KE= 3.065847137701D+02
 No NMR shielding tensors so no spin-rotation constants.
 Leave Link  601 at Mon Jun 15 19:19:11 2020, MaxMem= 16106127360 cpu:        10.2
 (Enter /sw/contrib/gaussian/g09/E01/g09/l9999.exe)
 1\1\GINC-N2110\Scan\RB2PLYPD3-FC\CC-pVTZ\C4H10O2\B3M2A1\15-Jun-2020\1\
 \#P opt=(z-matrix) cc-pvtz b2plypd3 integral=ultrafine scf=verytight\\
 title\\0,1\C\C,1,B1\H,2,B2,1,A1\H,2,B3,1,A2,3,D1,0\O,1,B4,2,A3,3,D2,0\
 O,5,B5,1,A4,2,D3,0\H,6,B6,5,A5,1,D4,0\C,1,B7,5,A6,6,D5,0\H,8,B8,1,A7,5
 ,D6,0\H,8,B9,1,A8,5,D7,0\H,8,B10,1,A9,5,D8,0\C,1,B11,5,A10,6,D9,0\H,12
 ,B12,1,A11,5,D10,0\H,12,B13,1,A12,5,D11,0\H,12,B14,1,A13,5,D12,0\H,2,B
 15,1,A14,5,D13,0\\B1=1.52517,s,-1000,0.\B2=1.08801,s,-1000,0.\B3=1.087
 89,s,-1000,0.\B4=1.4403,s,-1000,0.\B5=1.45821,s,-1000,0.\B6=1.30607,s,
 27,0.02\B7=1.52349,s,-1000,0.\B8=1.08797,s,-1000,0.\B9=1.08773,s,-1000
 ,0.\B10=1.08857,s,-1000,0.\B11=1.52846,s,-1000,0.\B12=1.08805,s,-1000,
 0.\B13=1.08863,s,-1000,0.\B14=1.09191,s,-1000,0.\B15=1.08934,s,-1000,0
 .\A1=111.24707,s,-1000,0.\A2=109.98392,s,-1000,0.\A3=110.66825,s,-1000
 ,0.\A4=112.14597,s,-1000,0.\A5=103.34544,s,-1000,0.\A6=101.52683,s,-10
 00,0.\A7=110.58104,s,-1000,0.\A8=110.16209,s,-1000,0.\A9=109.78908,s,-
 1000,0.\A10=110.98395,s,-1000,0.\A11=110.37048,s,-1000,0.\A12=109.7428
 7,s,-1000,0.\A13=112.79777,s,-1000,0.\A14=110.34073,s,-1000,0.\D1=119.
 73528,s,-1000,0.\D2=-62.68838,s,-1000,0.\D3=62.31889,s,-1000,0.\D4=30.
 ,s,-1000,0.\D5=-179.64309,s,-1000,0.\D6=61.6903,s,-1000,0.\D7=-58.4814
 8,s,-1000,0.\D8=181.79425,s,-1000,0.\D9=-62.37406,s,-1000,0.\D10=-50.1
 4254,s,-1000,0.\D11=-170.06568,s,-1000,0.\D12=71.67226,s,-1000,0.\D13=
 177.14609,s,-1000,0.\\Version=ES64L-G09RevE.01\State=1-A\HF=-308.22420
 34,-308.2379953,-308.2493089,-308.2584526,-308.2656964,-308.2712736,-3
 08.2753992,-308.278256,-308.279998,-308.2807701,-308.2806972,-308.2798
 858,-308.2784401,-308.2764419,-308.2739667,-308.2710813,-308.2678448,-
 308.2643134,-308.2605264,-308.2565293,-308.2523601,-308.2480531,-308.2
 436394,-308.2391466,-308.2345972,-308.2300067,-308.2253851,-308.220740
 4\MP2=-308.6106311,-308.6248015,-308.6365034,-308.6460447,-308.6536953
 ,-308.6596867,-308.6642364,-308.6675268,-308.6697091,-308.6709295,-308
 .6713124,-308.6709633,-308.6699883,-308.668468,-308.6664779,-308.66408
 45,-308.6613471,-308.6583225,-308.6550484,-308.6515712,-308.6479287,-3
 08.6441553,-308.6402822,-308.6363368,-308.6323416,-308.6283122,-308.62
 42583,-308.6201879\RMSD=7.884e-09,6.613e-09,6.526e-09,6.458e-09,6.406e
 -09,6.372e-09,6.358e-09,6.368e-09,6.397e-09,6.450e-09,6.525e-09,6.615e
 -09,6.707e-09,6.786e-09,6.848e-09,6.899e-09,6.961e-09,7.064e-09,7.224e
 -09,7.454e-09,7.754e-09,8.121e-09,8.557e-09,9.080e-09,9.718e-09,3.551e
 -09,3.660e-09,3.797e-09\PG=C01 [X(C4H10O2)]\\@


 THE WORLD OF CHEMICAL REACTIONS IS LIKE A STAGE,
 ON WHICH SCENE AFTER SCENE IS CEASELESSLY PLAYED.
 THE ACTORS ON IT ARE THE ELEMENTS.
   -- CLEMENS WINKLER   BER. 30,13(1897)
 (DISCOVERER OF GERMANIUM, FEB 6, 1886)
 Job cpu time:       1 days 10 hours  2 minutes  7.6 seconds.
 File lengths (MBytes):  RWF=     57 Int=      0 D2E=      0 Chk=     16 Scr=      1
 Normal termination of Gaussian 09 at Mon Jun 15 19:19:11 2020.
