 Entering Gaussian System, Link 0=g16
 Input=ts_taup_anh_b2.com
 Output=ts_taup_anh_b2.log
 Initial command:
 /gpfs/fs1/soft/improv/software/custom-built/gaussian/g16/l1.exe "/scratch/b49793/Gau-3670820.inp" -scrdir="/scratch/b49793/"
 Entering Link 1 = /gpfs/fs1/soft/improv/software/custom-built/gaussian/g16/l1.exe PID=   3670821.
  
 Copyright (c) 1988-2021, Gaussian, Inc.  All Rights Reserved.
  
 This is part of the Gaussian(R) 16 program.  It is based on
 the Gaussian(R) 09 system (copyright 2009, Gaussian, Inc.),
 the Gaussian(R) 03 system (copyright 2003, Gaussian, Inc.),
 the Gaussian(R) 98 system (copyright 1998, Gaussian, Inc.),
 the Gaussian(R) 94 system (copyright 1995, Gaussian, Inc.),
 the Gaussian 92(TM) system (copyright 1992, Gaussian, Inc.),
 the Gaussian 90(TM) system (copyright 1990, Gaussian, Inc.),
 the Gaussian 88(TM) system (copyright 1988, Gaussian, Inc.),
 the Gaussian 86(TM) system (copyright 1986, Carnegie Mellon
 University), and the Gaussian 82(TM) system (copyright 1983,
 Carnegie Mellon University). Gaussian is a federally registered
 trademark of Gaussian, Inc.
  
 This software contains proprietary and confidential information,
 including trade secrets, belonging to Gaussian, Inc.
  
 This software is provided under written license and may be
 used, copied, transmitted, or stored only in accord with that
 written license.
  
 The following legend is applicable only to US Government
 contracts under FAR:
  
                    RESTRICTED RIGHTS LEGEND
  
 Use, reproduction and disclosure by the US Government is
 subject to restrictions as set forth in subparagraphs (a)
 and (c) of the Commercial Computer Software - Restricted
 Rights clause in FAR 52.227-19.
  
 Gaussian, Inc.
 340 Quinnipiac St., Bldg. 40, Wallingford CT 06492
  
  
 ---------------------------------------------------------------
 Warning -- This program may not be used in any manner that
 competes with the business of Gaussian, Inc. or will provide
 assistance to any competitor of Gaussian, Inc.  The licensee
 of this program is prohibited from giving any competitor of
 Gaussian, Inc. access to this program.  By using this program,
 the user acknowledges that Gaussian, Inc. is engaged in the
 business of creating and licensing software in the field of
 computational chemistry and represents and warrants to the
 licensee that it is not a competitor of Gaussian, Inc. and that
 it will not use this program in any manner prohibited above.
 ---------------------------------------------------------------
  

 Cite this work as:
 Gaussian 16, Revision C.02,
 M. J. Frisch, G. W. Trucks, H. B. Schlegel, G. E. Scuseria, 
 M. A. Robb, J. R. Cheeseman, G. Scalmani, V. Barone, 
 G. A. Petersson, H. Nakatsuji, X. Li, M. Caricato, A. V. Marenich, 
 J. Bloino, B. G. Janesko, R. Gomperts, B. Mennucci, H. P. Hratchian, 
 J. V. Ortiz, A. F. Izmaylov, J. L. Sonnenberg, D. Williams-Young, 
 F. Ding, F. Lipparini, F. Egidi, J. Goings, B. Peng, A. Petrone, 
 T. Henderson, D. Ranasinghe, V. G. Zakrzewski, J. Gao, N. Rega, 
 G. Zheng, W. Liang, M. Hada, M. Ehara, K. Toyota, R. Fukuda, 
 J. Hasegawa, M. Ishida, T. Nakajima, Y. Honda, O. Kitao, H. Nakai, 
 T. Vreven, K. Throssell, J. A. Montgomery, Jr., J. E. Peralta, 
 F. Ogliaro, M. J. Bearpark, J. J. Heyd, E. N. Brothers, K. N. Kudin, 
 V. N. Staroverov, T. A. Keith, R. Kobayashi, J. Normand, 
 K. Raghavachari, A. P. Rendell, J. C. Burant, S. S. Iyengar, 
 J. Tomasi, M. Cossi, J. M. Millam, M. Klene, C. Adamo, R. Cammi, 
 J. W. Ochterski, R. L. Martin, K. Morokuma, O. Farkas, 
 J. B. Foresman, and D. J. Fox, Gaussian, Inc., Wallingford CT, 2019.
 
 ******************************************
 Gaussian 16:  ES64L-G16RevC.02  7-Dec-2021
                19-Apr-2025 
 ******************************************
 %NProcShared=30
 Will use up to   30 processors via shared memory.
 %mem=2056MW
 ----------------------------------------------------------------------
 #b2plypd3/cc-pvtz opt=(ts,calcfc,noeigentest,internal) freq=anh int=su
 perfine
 ----------------------------------------------------------------------
 1/5=1,10=4,11=1,18=40,38=1,80=1/1,3;
 2/12=2,17=6,18=5,29=3,40=1/2;
 3/5=16,6=1,11=9,25=1,30=1,71=2,74=-60,75=-7,140=1/1,2,3;
 4//1;
 5/5=2,38=5/2;
 8/6=3,8=1,10=1,19=11,30=-1/1;
 9/15=3,16=-3/6;
 11/6=1,8=1,15=11,17=12,24=-1,27=1,28=-2,29=300,32=6,42=3/1,2,10;
 10/6=2,21=1/2;
 8/6=4,8=1,10=1,19=11,30=-1/11,4;
 10/5=1,20=4/2;
 11/12=2,14=11,16=1,17=2,28=-2,42=3,76=2/2,10,12;
 6/7=2,8=2,9=2,10=2/1;
 7/10=1,12=2,25=1,44=2/1,2,3,16;
 1/5=1,10=4,11=1,18=40,80=1/3(2);
 2/29=3/2;
 99//99;
 2/29=3/2;
 3/5=16,6=1,11=9,25=1,30=1,71=1,74=-60,75=-7/1,2,3;
 4/5=5,16=3,69=1/1;
 5/5=2,38=5/2;
 8/6=4,10=1/1;
 9/15=2,16=-3/6;
 10/5=1/2;
 7/12=2/1,2,3,16;
 1/5=1,11=1,18=40,80=1/3(-8);
 2/29=3/2;
 6/7=2,8=2,9=2,10=2/1;
 99/9=10/99;
 --
 ts
 --
 Symbolic Z-matrix:
 Charge =  0 Multiplicity = 2
 n1
 h1                   n1   rnh1
 x1                   h1    2.       n1    90. 
 o1                   h1   rts      x1   ahox     n1    180.     0
 h2                   n1   rnh2a    h1   ahnha    x1   b1a      0
 h3                   n1   rnh2b    h1   ahnhb    x1   b1b      0
 h4                   o1   roh      h1   ahoh     x1   bp       0
       Variables:
  rnh1                  1.1591                   
  rnh2a                 1.0178                   
  rnh2b                 1.0181                   
  roh                   0.9672                   
  ahox                119.929                    
  ahnha               107.5015                   
  ahnhb               109.6272                   
  ahoh                105.8754                   
  b1a                 130.8685                   
  b1b                -113.6848                   
  bp                  115.6742                   
  rts                   1.2645                   
 

 GradGradGradGradGradGradGradGradGradGradGradGradGradGradGradGradGradGrad
 Berny optimization.
 Initialization pass.
                       ----------------------------
                       !    Initial Parameters    !
                       ! (Angstroms and Degrees)  !
 ----------------------                            ----------------------
 !      Name          Value   Derivative information (Atomic Units)     !
 ------------------------------------------------------------------------
 !      rnh1         1.1591   calculate D2E/DX2 analytically            !
 !      rnh2a        1.0178   calculate D2E/DX2 analytically            !
 !      rnh2b        1.0181   calculate D2E/DX2 analytically            !
 !       roh         0.9672   calculate D2E/DX2 analytically            !
 !      ahox       119.929    calculate D2E/DX2 analytically            !
 !      ahnha      107.5015   calculate D2E/DX2 analytically            !
 !      ahnhb      109.6272   calculate D2E/DX2 analytically            !
 !      ahoh       105.8754   calculate D2E/DX2 analytically            !
 !       b1a       130.8685   calculate D2E/DX2 analytically            !
 !       b1b      -113.6848   calculate D2E/DX2 analytically            !
 !       bp        115.6742   calculate D2E/DX2 analytically            !
 !       rts         1.2645   calculate D2E/DX2 analytically            !
 ------------------------------------------------------------------------
 Trust Radius=3.00D-01 FncErr=1.00D-07 GrdErr=1.00D-07 EigMax=2.50D+02 EigMin=1.00D-04
 Number of steps in this run=     22 maximum allowed number of steps=    100.
 Search for a saddle point of order  1.
 GradGradGradGradGradGradGradGradGradGradGradGradGradGradGradGradGradGrad

 ---------------------------------------------------------------------------------------------------
                            Z-MATRIX (ANGSTROMS AND DEGREES)
   CD    Cent   Atom    N1       Length/X        N2       Alpha/Y        N3        Beta/Z          J
 ---------------------------------------------------------------------------------------------------
      1      1  N 
      2      2  H        1   1.159100(     1)
      3         X        2   2.000000(     2)      1   90.000(     7)
      4      3  O        2   1.264500(     3)      3  119.929(     8)      1  180.000(    12)      0
      5      4  H        1   1.017800(     4)      2  107.502(     9)      3  130.869(    13)      0
      6      5  H        1   1.018100(     5)      2  109.627(    10)      3 -113.685(    14)      0
      7      6  H        4   0.967200(     6)      2  105.875(    11)      3  115.674(    15)      0
 ---------------------------------------------------------------------------------------------------
                         Z-Matrix orientation:                         
 ---------------------------------------------------------------------
 Center     Atomic      Atomic             Coordinates (Angstroms)
 Number     Number       Type             X           Y           Z
 ---------------------------------------------------------------------
      1          7           0        0.000000    0.000000    0.000000
      2          1           0        0.000000    0.000000    1.159100
      3         -1           0        2.000000    0.000000    1.159100
      4          8           0       -0.630892   -0.000000    2.254972
      5          1           0       -0.635144   -0.734045   -0.306084
      6          1           0       -0.385213    0.878174   -0.341979
      7          1           0       -1.112205    0.838462    2.283166
 ---------------------------------------------------------------------
                    Distance matrix (angstroms):
                    1          2          3          4          5
     1  N    0.000000
     2  H    1.159100   0.000000
     3  X    2.311604   2.000000   0.000000
     4  O    2.341564   1.264500   2.850005   0.000000
     5  H    1.017800   1.757553   3.103154   2.664178   0.000000
     6  H    1.018100   1.781240   2.951892   2.752399   1.631871
     7  H    2.674484   1.789845   3.413556   0.967200   3.066689
                    6          7
     6  H    0.000000
     7  H    2.724239   0.000000
 Stoichiometry    H4NO(2)
 Framework group  C1[X(H4NO)]
 Deg. of freedom    12
 Full point group                 C1      NOp   1
 Largest Abelian subgroup         C1      NOp   1
 Largest concise Abelian subgroup C1      NOp   1
                         Standard orientation:                         
 ---------------------------------------------------------------------
 Center     Atomic      Atomic             Coordinates (Angstroms)
 Number     Number       Type             X           Y           Z
 ---------------------------------------------------------------------
      1          7           0       -1.155700   -0.034565   -0.104873
      2          1           0       -0.029695   -0.131366   -0.362276
      3          8           0        1.182934   -0.096574   -0.005511
      4          1           0       -1.329676   -0.598403    0.724425
      5          1           0       -1.366800    0.928381    0.149487
      6          1           0        1.352599    0.815932    0.266560
 ---------------------------------------------------------------------
 Rotational constants (GHZ):         172.8533361          10.6528760          10.3966340
 Standard basis: CC-pVTZ (5D, 7F)
 There are   130 symmetry adapted cartesian basis functions of A   symmetry.
 There are   116 symmetry adapted basis functions of A   symmetry.
   116 basis functions,   172 primitive gaussians,   130 cartesian basis functions
    10 alpha electrons        9 beta electrons
       nuclear repulsion energy        36.9511599619 Hartrees.
 NAtoms=    6 NActive=    6 NUniq=    6 SFac= 1.00D+00 NAtFMM=   60 NAOKFM=F Big=F
 Integral buffers will be    131072 words long.
 Regular integral format.
 Two-electron integral symmetry is turned on.
 Nuclear repulsion after empirical dispersion term =       36.9499211800 Hartrees.
 One-electron integrals computed using PRISM.
 NBasis=   116 RedAO= T EigKep=  1.83D-03  NBF=   116
 NBsUse=   116 1.00D-06 EigRej= -1.00D+00 NBFU=   116
 ExpMin= 1.03D-01 ExpMax= 1.53D+04 ExpMxC= 5.22D+02 IAcc=3 IRadAn=         7 AccDes= 0.00D+00
 Harris functional with IExCor=  419 and IRadAn=       7 diagonalized for initial guess.
 HarFok:  IExCor=  419 AccDes= 0.00D+00 IRadAn=         7 IDoV= 1 UseB2=F ITyADJ=14
 ICtDFT=  3500011 ScaDFX=  1.000000  1.000000  1.000000  1.000000
 FoFCou: FMM=F IPFlag=           0 FMFlag=      100000 FMFlg1=           0
         NFxFlg=           0 DoJE=T BraDBF=F KetDBF=T FulRan=T
         wScrn=  0.000000 ICntrl=       500 IOpCl=  0 I1Cent=   200000004 NGrid=           0
         NMat0=    1 NMatS0=      1 NMatT0=    0 NMatD0=    1 NMtDS0=    0 NMtDT0=    0
 Petite list used in FoFCou.
 Initial guess <Sx>= 0.0000 <Sy>= 0.0000 <Sz>= 0.5000 <S**2>= 0.7500 S= 0.5000
 Keep R1 and R2 ints in memory in canonical form, NReq=74845304.
 Requested convergence on RMS density matrix=1.00D-08 within 128 cycles.
 Requested convergence on MAX density matrix=1.00D-06.
 Requested convergence on             energy=1.00D-06.
 No special actions if energy rises.
 Integral accuracy reduced to 1.0D-05 until final iterations.
 Initial convergence to 1.0D-05 achieved.  Increase integral accuracy.
 SCF Done:  E(UB2PLYPD3) =  -132.092007145     A.U. after   21 cycles
            NFock= 21  Conv=0.54D-08     -V/T= 2.0038
 <Sx>= 0.0000 <Sy>= 0.0000 <Sz>= 0.5000 <S**2>= 0.7705 S= 0.5102
 <L.S>=  0.00000000000    
 Annihilation of the first spin contaminant:
 S**2 before annihilation     0.7705,   after     0.7501
 DoSCS=T DFT=T ScalE2(SS,OS)=  0.270000  0.270000
 ExpMin= 1.03D-01 ExpMax= 1.53D+04 ExpMxC= 5.22D+02 IAcc=3 IRadAn=         7 AccDes= 0.00D+00
 HarFok:  IExCor=  205 AccDes= 0.00D+00 IRadAn=         7 IDoV=-2 UseB2=F ITyADJ=14
 ICtDFT= 12500011 ScaDFX=  1.000000  1.000000  1.000000  1.000000
 Range of M.O.s used for correlation:     3   116
 NBasis=   116 NAE=    10 NBE=     9 NFC=     2 NFV=     0
 NROrb=    114 NOA=     8 NOB=     7 NVA=   106 NVB=   107
 DoSCS=T DFT=T ScalE2(SS,OS)=  0.270000  0.270000
 Disk-based method using ON**2 memory for  8 occupieds at a time.
 Permanent disk used for amplitudes=     1475361 words.
 Estimated scratch disk usage=    32402344 words.
 Actual    scratch disk usage=    31643048 words.
 JobTyp=2 Pass  1:  I=   3 to  10 NPSUse= 30 ParTrn=T ParDer=T DoDerP=T.
 (rs|ai) integrals will be sorted in core.
 Actual    scratch disk usage=    31643048 words.
 JobTyp=3 Pass  1:  I=   3 to   9 NPSUse= 30 ParTrn=T ParDer=T DoDerP=T.
 (rs|ai) integrals will be sorted in core.
 Spin components of T(2) and E(2):
     alpha-alpha T2 =       0.2347874435D-01 E2=     -0.2009564612D-01
     alpha-beta  T2 =       0.1460551848D+00 E2=     -0.1173533114D+00
     beta-beta   T2 =       0.3000200274D-01 E2=     -0.1856440301D-01
 (S**2,0)=  0.77053D+00           (S**2,1)=  0.74066D+00
 Scaling Projection term by:   0.270000
 E(PUHF)=      -0.13209946316D+03        E(PMP2)=      -0.13224857424D+03
 E2(B2PLYPD3) =    -0.1560133605D+00 E(B2PLYPD3) =    -0.13224802050589D+03
 G2DrvN: will do     7 centers at a time, making    1 passes.
 Calling FoFCou, ICntrl=  3107 FMM=F I1Cent=   0 AccDes= 0.00D+00.
 End of G2Drv F.D. properties file   721 does not exist.
 End of G2Drv F.D. properties file   722 does not exist.
 End of G2Drv F.D. properties file   788 does not exist.
          IDoAtm=111111
          Differentiating once with respect to electric field.
                with respect to dipole field.
          Differentiating once with respect to nuclear coordinates.
 Keep R1 and R2 ints in memory in canonical form, NReq=74659301.
          There are    21 degrees of freedom in the 1st order CPHF.  IDoFFX=6 NUNeed=    21.
     18 vectors produced by pass  0 Test12= 9.63D-15 4.76D-09 XBig12= 5.95D+01 6.81D+00.
 AX will form    18 AO Fock derivatives at one time.
     18 vectors produced by pass  1 Test12= 9.63D-15 4.76D-09 XBig12= 1.04D+01 8.56D-01.
     18 vectors produced by pass  2 Test12= 9.63D-15 4.76D-09 XBig12= 8.07D-01 1.99D-01.
     18 vectors produced by pass  3 Test12= 9.63D-15 4.76D-09 XBig12= 1.06D-02 2.21D-02.
     18 vectors produced by pass  4 Test12= 9.63D-15 4.76D-09 XBig12= 1.35D-04 2.00D-03.
     18 vectors produced by pass  5 Test12= 9.63D-15 4.76D-09 XBig12= 8.74D-07 1.50D-04.
     18 vectors produced by pass  6 Test12= 9.63D-15 4.76D-09 XBig12= 3.95D-09 9.21D-06.
      8 vectors produced by pass  7 Test12= 9.63D-15 4.76D-09 XBig12= 2.07D-11 8.87D-07.
      3 vectors produced by pass  8 Test12= 9.63D-15 4.76D-09 XBig12= 1.08D-13 6.99D-08.
 InvSVY:  IOpt=1 It=  1 EMax= 3.24D-15
 Solved reduced A of dimension   137 with    21 vectors.
 End of Minotr F.D. properties file   721 does not exist.
 End of Minotr F.D. properties file   722 does not exist.
 End of Minotr F.D. properties file   788 does not exist.
 MDV=  2155872256.
 DoSCS=T DFT=T ScalE2(SS,OS)=  0.270000  0.270000
 Form MO integral derivatives with frozen-active canonical formalism.
 Discarding MO integrals.
 Reordered first order wavefunction length =      6016755
 In DefCFB: NBatch=  1 ICI= 10 ICA=107 LFMax= 54
            Large arrays: LIAPS=   122027360 LIARS=    68159000 words.
 In DefCFB: NBatch=  1 ICI= 10 ICA=107 LFMax= 54
            Large arrays: LIAPS=   122027360 LIARS=    68159000 words.
 Semi-Direct transformation.
 ModeAB=           2 MOrb=            10 LenV=    2155299908
 LASXX=      7321660 LTotXX=     7321660 LenRXX=     7321660
 LTotAB=     7566390 MaxLAS=     9877400 LenRXY=     9877400
 NonZer=    14643320 LenScr=    22747136 LnRSAI=           0
 LnScr1=           0 LExtra=           0 Total=     39946196
 MaxDsk=          -1 SrtSym=           F ITran=            4
 JobTyp=1 Pass  1:  I=   1 to  10.
 (rs|ai) integrals will be sorted in core.
 ModeAB=           2 MOrb=             9 LenV=    2155299908
 LASXX=      6628032 LTotXX=     6628032 LenRXX=     8889660
 LTotAB=     5716368 MaxLAS=     8889660 LenRXY=     5716368
 NonZer=    13256064 LenScr=    20639232 LnRSAI=           0
 LnScr1=           0 LExtra=           0 Total=     35245260
 MaxDsk=          -1 SrtSym=           F ITran=            4
 JobTyp=2 Pass  1:  I=   1 to   9.
 (rs|ai) integrals will be sorted in core.
 SymMOI:  orbitals are not symmetric.
 DoSCS=T DFT=T ScalE2(SS,OS)=  0.270000  0.270000
 Spin components of T(2) and E(2):
     alpha-alpha T2 =       0.2347874435D-01 E2=     -0.2009564612D-01
     alpha-beta  T2 =       0.1460551848D+00 E2=     -0.1173533114D+00
     beta-beta   T2 =       0.3000200274D-01 E2=     -0.1856440301D-01
 E2(B2PLYPD3) =    -0.1560133605D+00 E(B2PLYPD3) =    -0.13224802050589D+03
 (S**2,0)=  0.77053D+00           (S**2,1)=  0.74066D+00
 Scaling Projection term by:   0.270000
 E(PUHF)=      -0.13209946316D+03        E(PMP2)=      -0.13224857424D+03
          IDoAtm=111111
          Differentiating once with respect to electric field.
                with respect to dipole field.
          Differentiating once with respect to nuclear coordinates.
 Keep R1 and R2 ints in memory in canonical form, NReq=74849424.
          There are     1 degrees of freedom in the 1st order CPHF.  IDoFFX=0 NUNeed=     1.
 LinEq1:  Iter=  0 NonCon=     1 RMS=1.55D-03 Max=3.36D-02 NDo=     1
 AX will form     1 AO Fock derivatives at one time.
 LinEq1:  Iter=  1 NonCon=     1 RMS=3.91D-04 Max=8.47D-03 NDo=     1
 LinEq1:  Iter=  2 NonCon=     1 RMS=3.07D-04 Max=6.52D-03 NDo=     1
 LinEq1:  Iter=  3 NonCon=     1 RMS=1.38D-04 Max=2.48D-03 NDo=     1
 LinEq1:  Iter=  4 NonCon=     1 RMS=1.10D-04 Max=1.65D-03 NDo=     1
 LinEq1:  Iter=  5 NonCon=     1 RMS=4.60D-05 Max=1.09D-03 NDo=     1
 LinEq1:  Iter=  6 NonCon=     1 RMS=1.81D-05 Max=3.27D-04 NDo=     1
 LinEq1:  Iter=  7 NonCon=     1 RMS=5.45D-06 Max=7.40D-05 NDo=     1
 LinEq1:  Iter=  8 NonCon=     1 RMS=1.69D-06 Max=3.52D-05 NDo=     1
 LinEq1:  Iter=  9 NonCon=     1 RMS=5.24D-07 Max=7.05D-06 NDo=     1
 LinEq1:  Iter= 10 NonCon=     1 RMS=1.40D-07 Max=2.25D-06 NDo=     1
 LinEq1:  Iter= 11 NonCon=     1 RMS=2.98D-08 Max=2.87D-07 NDo=     1
 LinEq1:  Iter= 12 NonCon=     1 RMS=9.52D-09 Max=8.40D-08 NDo=     1
 LinEq1:  Iter= 13 NonCon=     1 RMS=2.30D-09 Max=2.13D-08 NDo=     1
 LinEq1:  Iter= 14 NonCon=     1 RMS=5.07D-10 Max=4.56D-09 NDo=     1
 LinEq1:  Iter= 15 NonCon=     1 RMS=1.05D-10 Max=9.03D-10 NDo=     1
 LinEq1:  Iter= 16 NonCon=     0 RMS=2.32D-11 Max=1.80D-10 NDo=     1
 Linear equations converged to 1.000D-10 1.000D-09 after    16 iterations.
 End of Minotr F.D. properties file   721 does not exist.
 End of Minotr F.D. properties file   722 does not exist.
 End of Minotr F.D. properties file   788 does not exist.
 Symmetrizing basis deriv contribution to polar:
 IMax=3 JMax=2 DiffMx= 0.00D+00
 G2DrvN: will do     7 centers at a time, making    1 passes.
 Calling FoFCou, ICntrl=  3107 FMM=F I1Cent=   0 AccDes= 0.00D+00.
 End of G2Drv F.D. properties file   721 does not exist.
 End of G2Drv F.D. properties file   722 does not exist.
 End of G2Drv F.D. properties file   788 does not exist.
 DoSCS=T DFT=T ScalE2(SS,OS)=  0.270000  0.270000
 R2 and R3 integrals will be kept in memory, NReq=    74453740.
 DD1Dir will call FoFMem   1 times, MxPair=       262
 NAB=    90 NAA=    45 NBB=    36.
 Discarding MO integrals.

 **********************************************************************

            Population analysis using the SCF Density.

 **********************************************************************

 Orbital symmetries:
 Alpha Orbitals:
       Occupied  (A) (A) (A) (A) (A) (A) (A) (A) (A) (A)
       Virtual   (A) (A) (A) (A) (A) (A) (A) (A) (A) (A) (A) (A)
                 (A) (A) (A) (A) (A) (A) (A) (A) (A) (A) (A) (A)
                 (A) (A) (A) (A) (A) (A) (A) (A) (A) (A) (A) (A)
                 (A) (A) (A) (A) (A) (A) (A) (A) (A) (A) (A) (A)
                 (A) (A) (A) (A) (A) (A) (A) (A) (A) (A) (A) (A)
                 (A) (A) (A) (A) (A) (A) (A) (A) (A) (A) (A) (A)
                 (A) (A) (A) (A) (A) (A) (A) (A) (A) (A) (A) (A)
                 (A) (A) (A) (A) (A) (A) (A) (A) (A) (A) (A) (A)
                 (A) (A) (A) (A) (A) (A) (A) (A) (A) (A)
 Beta  Orbitals:
       Occupied  (A) (A) (A) (A) (A) (A) (A) (A) (A)
       Virtual   (A) (A) (A) (A) (A) (A) (A) (A) (A) (A) (A) (A)
                 (A) (A) (A) (A) (A) (A) (A) (A) (A) (A) (A) (A)
                 (A) (A) (A) (A) (A) (A) (A) (A) (A) (A) (A) (A)
                 (A) (A) (A) (A) (A) (A) (A) (A) (A) (A) (A) (A)
                 (A) (A) (A) (A) (A) (A) (A) (A) (A) (A) (A) (A)
                 (A) (A) (A) (A) (A) (A) (A) (A) (A) (A) (A) (A)
                 (A) (A) (A) (A) (A) (A) (A) (A) (A) (A) (A) (A)
                 (A) (A) (A) (A) (A) (A) (A) (A) (A) (A) (A) (A)
                 (A) (A) (A) (A) (A) (A) (A) (A) (A) (A) (A)
 The electronic state is 2-A.
 Alpha  occ. eigenvalues --  -19.74504 -14.86470  -1.14206  -1.00030  -0.61199
 Alpha  occ. eigenvalues --   -0.56408  -0.51056  -0.42758  -0.39489  -0.37055
 Alpha virt. eigenvalues --    0.05971   0.11610   0.14231   0.23358   0.36451
 Alpha virt. eigenvalues --    0.38896   0.46763   0.48013   0.49710   0.57442
 Alpha virt. eigenvalues --    0.57847   0.58804   0.62688   0.64517   0.66891
 Alpha virt. eigenvalues --    0.73739   0.76863   0.83300   0.85914   1.01037
 Alpha virt. eigenvalues --    1.06078   1.09352   1.13202   1.16992   1.32041
 Alpha virt. eigenvalues --    1.37464   1.40998   1.44401   1.59353   1.60241
 Alpha virt. eigenvalues --    1.63092   1.66188   1.83126   1.88978   1.97892
 Alpha virt. eigenvalues --    2.04499   2.07388   2.24240   2.40399   2.49527
 Alpha virt. eigenvalues --    2.58388   2.65793   3.12311   3.16271   3.22462
 Alpha virt. eigenvalues --    3.25215   3.26637   3.28329   3.29271   3.36902
 Alpha virt. eigenvalues --    3.40153   3.46272   3.54005   3.56563   3.58840
 Alpha virt. eigenvalues --    3.62191   3.64958   3.74202   3.76322   3.81848
 Alpha virt. eigenvalues --    3.82830   3.86672   3.87142   3.91184   4.01007
 Alpha virt. eigenvalues --    4.05803   4.09976   4.12380   4.15241   4.18224
 Alpha virt. eigenvalues --    4.29855   4.32009   4.35050   4.41667   4.56321
 Alpha virt. eigenvalues --    4.67611   4.74103   4.94435   4.96445   5.03198
 Alpha virt. eigenvalues --    5.17361   5.19285   5.34310   5.50831   5.55062
 Alpha virt. eigenvalues --    5.59457   5.73098   5.80180   5.83653   5.97616
 Alpha virt. eigenvalues --    6.05560   6.07869   6.19519   6.56865   6.58815
 Alpha virt. eigenvalues --    6.69843   6.71092   6.81871   6.81981   6.89134
 Alpha virt. eigenvalues --    6.92802   7.08707   7.41232   7.48056  11.11508
 Alpha virt. eigenvalues --   12.94214
  Beta  occ. eigenvalues --  -19.72507 -14.85051  -1.08275  -0.95386  -0.57183
  Beta  occ. eigenvalues --   -0.55255  -0.47507  -0.37507  -0.33336
  Beta virt. eigenvalues --   -0.06862   0.06513   0.12319   0.14532   0.23790
  Beta virt. eigenvalues --    0.36365   0.39567   0.47430   0.48908   0.52225
  Beta virt. eigenvalues --    0.58438   0.59414   0.59825   0.63930   0.66208
  Beta virt. eigenvalues --    0.68266   0.75515   0.77919   0.83759   0.86800
  Beta virt. eigenvalues --    1.01185   1.06353   1.10068   1.13310   1.18073
  Beta virt. eigenvalues --    1.32511   1.38907   1.42437   1.46485   1.60166
  Beta virt. eigenvalues --    1.62602   1.64908   1.67211   1.85267   1.90005
  Beta virt. eigenvalues --    1.99971   2.06907   2.08855   2.26924   2.40875
  Beta virt. eigenvalues --    2.49210   2.58771   2.66436   3.12747   3.18643
  Beta virt. eigenvalues --    3.23749   3.26028   3.27221   3.28609   3.29861
  Beta virt. eigenvalues --    3.37313   3.40599   3.46114   3.54781   3.57127
  Beta virt. eigenvalues --    3.59548   3.63563   3.65624   3.74121   3.76263
  Beta virt. eigenvalues --    3.82077   3.83030   3.87072   3.87941   3.91294
  Beta virt. eigenvalues --    4.01554   4.07215   4.10772   4.13155   4.16193
  Beta virt. eigenvalues --    4.18555   4.30784   4.32497   4.35521   4.44420
  Beta virt. eigenvalues --    4.57328   4.69022   4.76125   4.96560   4.99363
  Beta virt. eigenvalues --    5.05511   5.18777   5.21684   5.36292   5.52979
  Beta virt. eigenvalues --    5.57792   5.60976   5.74844   5.82160   5.85764
  Beta virt. eigenvalues --    5.98901   6.07053   6.08353   6.21769   6.59997
  Beta virt. eigenvalues --    6.60548   6.72417   6.75022   6.84589   6.85395
  Beta virt. eigenvalues --    6.90377   6.94436   7.11053   7.43986   7.51289
  Beta virt. eigenvalues --   11.13442  12.95442
          Condensed to atoms (all electrons):
               1          2          3          4          5          6
     1  N    6.424343   0.271283  -0.065397   0.370088   0.370069   0.016707
     2  H    0.271283   0.369895   0.163735  -0.021899  -0.020267  -0.027285
     3  O   -0.065397   0.163735   8.004041   0.005074   0.004873   0.311456
     4  H    0.370088  -0.021899   0.005074   0.516828  -0.042620  -0.000156
     5  H    0.370069  -0.020267   0.004873  -0.042620   0.530380   0.001040
     6  H    0.016707  -0.027285   0.311456  -0.000156   0.001040   0.481113
          Atomic-Atomic Spin Densities.
               1          2          3          4          5          6
     1  N    0.593279   0.008381  -0.078455   0.001883   0.002012   0.003233
     2  H    0.008381  -0.056922  -0.019646   0.001195   0.000354   0.001235
     3  O   -0.078455  -0.019646   0.672387   0.001428   0.002119  -0.001278
     4  H    0.001883   0.001195   0.001428  -0.019423   0.000575  -0.000091
     5  H    0.002012   0.000354   0.002119   0.000575  -0.019281  -0.000350
     6  H    0.003233   0.001235  -0.001278  -0.000091  -0.000350  -0.015228
 Mulliken charges and spin densities:
               1          2
     1  N   -0.387092   0.530332
     2  H    0.264538  -0.065403
     3  O   -0.423782   0.576555
     4  H    0.172686  -0.014434
     5  H    0.156526  -0.014571
     6  H    0.217124  -0.012479
 Sum of Mulliken charges =  -0.00000   1.00000
 Mulliken charges and spin densities with hydrogens summed into heavy atoms:
               1          2
     1  N    0.206658   0.435924
     3  O   -0.206658   0.564076
 APT charges:
               1
     1  N   -0.218412
     2  H   -0.139606
     3  O   -0.291172
     4  H    0.219211
     5  H    0.209393
     6  H    0.220585
 Sum of APT charges =   0.00000
 APT charges with hydrogens summed into heavy atoms:
               1
     1  N    0.070587
     3  O   -0.070587
 Electronic spatial extent (au):  <R**2>=            131.9275
 Charge=             -0.0000 electrons
 Dipole moment (field-independent basis, Debye):
    X=             -1.0443    Y=              1.9107    Z=              1.5109  Tot=              2.6503
 Quadrupole moment (field-independent basis, Debye-Ang):
   XX=            -13.8834   YY=            -11.0813   ZZ=            -14.0379
   XY=              1.4167   XZ=             -1.6473   YZ=             -0.0593
 Traceless Quadrupole moment (field-independent basis, Debye-Ang):
   XX=             -0.8825   YY=              1.9196   ZZ=             -1.0370
   XY=              1.4167   XZ=             -1.6473   YZ=             -0.0593
 Octapole moment (field-independent basis, Debye-Ang**2):
  XXX=              2.4166  YYY=              2.6234  ZZZ=              1.5842  XYY=              0.4319
  XXY=              4.6042  XXZ=              4.5415  XZZ=              0.4243  YZZ=             -0.0793
  YYZ=              1.2190  XYZ=              1.6678
 Hexadecapole moment (field-independent basis, Debye-Ang**3):
 XXXX=           -121.1470 YYYY=            -14.9821 ZZZZ=            -15.5400 XXXY=              2.6739
 XXXZ=             -4.1412 YYYX=              0.6183 YYYZ=              0.1643 ZZZX=             -2.0260
 ZZZY=             -0.6150 XXYY=            -18.5970 XXZZ=            -23.7478 YYZZ=             -5.1211
 XXYZ=             -0.1979 YYXZ=             -0.7624 ZZXY=              0.9040
 N-N= 3.694992117999D+01 E-N=-3.852936795557D+02  KE= 1.315917131609D+02
  Exact polarizability:      55.345       1.280      17.419       1.236       0.413      14.875
 Approx polarizability:      43.037      -0.162      19.021       1.120       0.470      15.453
                          Isotropic Fermi Contact Couplings
        Atom                 a.u.       MegaHertz       Gauss      10(-4) cm-1
     1  N(14)             -0.01434      -4.63312      -1.65321      -1.54544
     2  H(1)              -0.01803     -80.56990     -28.74934     -26.87523
     3  O(17)              0.01890     -11.45950      -4.08903      -3.82248
     4  H(1)              -0.00829     -37.07668     -13.22988     -12.36745
     5  H(1)              -0.00842     -37.63037     -13.42745     -12.55214
     6  H(1)              -0.00770     -34.43794     -12.28831     -11.48726
 --------------------------------------------------------
       Center         ----  Spin Dipole Couplings  ----
                      3XX-RR        3YY-RR        3ZZ-RR
 --------------------------------------------------------
     1   Atom        1.135998     -0.664200     -0.471798
     2   Atom        0.180874     -0.107641     -0.073233
     3   Atom        2.040961     -1.023245     -1.017717
     4   Atom       -0.007071     -0.017567      0.024638
     5   Atom       -0.005435      0.059759     -0.054323
     6   Atom       -0.009860      0.072237     -0.062377
 --------------------------------------------------------
                        XY            XZ            YZ
 --------------------------------------------------------
     1   Atom        0.290978      0.699986      0.100328
     2   Atom       -0.018693     -0.020358      0.012269
     3   Atom       -0.415192     -0.508431      0.076783
     4   Atom        0.026513     -0.009080     -0.061233
     5   Atom       -0.027040      0.009902      0.030457
     6   Atom        0.028965      0.002455      0.043700
 --------------------------------------------------------


 ---------------------------------------------------------------------------------
              Anisotropic Spin Dipole Couplings in Principal Axis System
 ---------------------------------------------------------------------------------

       Atom             a.u.   MegaHertz   Gauss  10(-4) cm-1        Axes

              Baa    -0.7362   -28.393   -10.131    -9.471 -0.3741  0.2796  0.8842
     1 N(14)  Bbb    -0.7068   -27.259    -9.727    -9.093 -0.0309  0.9492 -0.3132
              Bcc     1.4430    55.652    19.858    18.564  0.9269  0.1445  0.3464
 
              Baa    -0.1121   -59.785   -21.333   -19.942  0.0416  0.9588 -0.2812
     2 H(1)   Bbb    -0.0718   -38.290   -13.663   -12.772  0.0975  0.2762  0.9561
              Bcc     0.1838    98.076    34.996    32.714  0.9944 -0.0672 -0.0820
 
              Baa    -1.1036    79.854    28.494    26.636  0.1039 -0.3519  0.9302
     3 O(17)  Bbb    -1.0753    77.810    27.765    25.955  0.1775  0.9269  0.3308
              Bcc     2.1789  -157.664   -56.259   -52.591  0.9786 -0.1307 -0.1588
 
              Baa    -0.0661   -35.247   -12.577   -11.757 -0.2835  0.8077  0.5169
     4 H(1)   Bbb    -0.0087    -4.663    -1.664    -1.555  0.9190  0.0747  0.3871
              Bcc     0.0748    39.910    14.241    13.312 -0.2741 -0.5848  0.7635
 
              Baa    -0.0665   -35.504   -12.669   -11.843 -0.2732 -0.2804  0.9202
     5 H(1)   Bbb    -0.0081    -4.322    -1.542    -1.442  0.9168  0.2139  0.3373
              Bcc     0.0746    39.827    14.211    13.285 -0.2914  0.9358  0.1986
 
              Baa    -0.0759   -40.488   -14.447   -13.505  0.0958 -0.2989  0.9495
     6 H(1)   Bbb    -0.0172    -9.169    -3.272    -3.058  0.9589 -0.2282 -0.1686
              Bcc     0.0931    49.658    17.719    16.564  0.2671  0.9266  0.2647
 

 ---------------------------------------------------------------------------------

 Calling FoFJK, ICntrl=  10100127 FMM=F ISym2X=0 I1Cent= 0 IOpClX= 1 NMat=1 NMatS=1 NMatT=0.
 ***** Axes restored to original set *****
 -------------------------------------------------------------------
 Center     Atomic                   Forces (Hartrees/Bohr)
 Number     Number              X              Y              Z
 -------------------------------------------------------------------
      1        7          -0.000799789    0.000111787   -0.001117207
      2        1          -0.002164499    0.000310453    0.005851273
      3        8           0.001980028    0.000415993   -0.005445883
      4        1           0.000218210    0.000893252    0.000853108
      5        1          -0.000008162   -0.000844696    0.000837351
      6        1           0.000774213   -0.000886789   -0.000978641
 -------------------------------------------------------------------
 Cartesian Forces:  Max     0.005851273 RMS     0.002108211
 -----------------------------------------------------------------------------------------------
                       Internal Coordinate Forces (Hartree/Bohr or radian)
  Cent   Atom   N1       Length/X         N2         Alpha/Y        N3         Beta/Z          J
 -----------------------------------------------------------------------------------------------
      1  N 
      2  H        1  -0.000573(     1)
         X        2   0.000000(     2)      1   0.002805(     7)
      3  O        2  -0.006942(     3)      3   0.002805(     8)      1   0.000528(    12)     0
      4  H        1  -0.001037(     4)      2  -0.001092(     9)      3   0.000769(    13)     0
      5  H        1  -0.001007(     5)      2  -0.001020(    10)      3  -0.000628(    14)     0
      6  H        4  -0.001183(     6)      2  -0.001731(    11)      3   0.000386(    15)     0
 -----------------------------------------------------------------------------------------------
 Internal  Forces:  Max     0.006941941 RMS     0.002226803

 GradGradGradGradGradGradGradGradGradGradGradGradGradGradGradGradGradGrad
 Berny optimization.
 Search for a saddle point.
 Step number   1 out of a maximum of   22
 All quantities printed in internal units (Hartrees-Bohrs-Radians)
 Swapping is turned off.
 Second derivative matrix not updated -- analytic derivatives used.
 The second derivative matrix:
                         rnh1      rnh2a     rnh2b      roh      ahox
           rnh1         0.15178
           rnh2a       -0.00538   0.44183
           rnh2b       -0.00542  -0.00347   0.44004
           roh          0.00261   0.00034   0.00090   0.51341
           ahox        -0.00533   0.00395   0.00249   0.00175   0.04613
           ahnha        0.00530   0.00205  -0.01040   0.00020   0.00013
           ahnhb        0.00378  -0.00937   0.00164   0.00118  -0.00104
           ahoh         0.01041  -0.00018   0.00104   0.00877  -0.00132
           b1a         -0.00377  -0.02149  -0.02382  -0.00104   0.00747
           b1b          0.00489   0.02272   0.02219   0.00068  -0.00544
           bp           0.00183   0.00011  -0.00002   0.00086   0.00446
           rts          0.13628   0.00172   0.00268  -0.00497  -0.02281
                         ahnha     ahnhb     ahoh       b1a       b1b
           ahnha        0.12715
           ahnhb        0.03584   0.12839
           ahoh        -0.00083  -0.00117   0.08287
           b1a          0.05919   0.05955  -0.00019   0.11223
           b1b         -0.05944  -0.05577  -0.00552  -0.10460   0.10787
           bp          -0.00100   0.00403  -0.00717   0.00264  -0.00065
           rts          0.00778   0.00974   0.00628   0.00066  -0.00137
                          bp        rts
           bp           0.00450
           rts         -0.00234   0.06984
 ITU=  0
     Eigenvalues ---   -0.03499   0.00297   0.00539   0.04632   0.06750
     Eigenvalues ---    0.08375   0.09199   0.25602   0.29827   0.44477
     Eigenvalues ---    0.45038   0.51368
 Eigenvectors required to have negative eigenvalues:
                          rts      rnh1      ahox       bp        b1b
   1                    0.79306  -0.57583   0.18477   0.05829   0.02638
                         ahnhb     ahoh      rnh2b     rnh2a      roh
   1                   -0.02393   0.01463  -0.01353  -0.01284   0.00906
 RFO step:  Lambda0=6.033643193D-04 Lambda=-3.90056225D-04.
 Linear search not attempted -- option 19 set.
 Variable       Old X    -DE/DX   Delta X   Delta X   Delta X     New X
                                 (Linear)    (Quad)   (Total)
   rnh1       2.19038  -0.00057   0.00000  -0.07590  -0.07590   2.11448
  rnh2a       1.92336  -0.00104   0.00000  -0.00424  -0.00424   1.91913
  rnh2b       1.92393  -0.00101   0.00000  -0.00398  -0.00398   1.91995
   roh        1.82774  -0.00118   0.00000  -0.00124  -0.00124   1.82650
   ahox       2.09316   0.00280   0.00000   0.08640   0.08640   2.17956
  ahnha       1.87626  -0.00109   0.00000  -0.01043  -0.01043   1.86582
  ahnhb       1.91336  -0.00102   0.00000  -0.01456  -0.01456   1.89880
   ahoh       1.84787  -0.00173   0.00000  -0.01158  -0.01158   1.83630
   b1a        2.28409   0.00077   0.00000   0.00057   0.00057   2.28466
   b1b       -1.98417  -0.00063   0.00000  -0.00812  -0.00812  -1.99229
    bp        2.01890   0.00039   0.00000   0.06218   0.06218   2.08107
   rts        2.38956  -0.00694   0.00000   0.08424   0.08424   2.47380
         Item               Value     Threshold  Converged?
 Maximum Force            0.006942     0.000450     NO 
 RMS     Force            0.002349     0.000300     NO 
 Maximum Displacement     0.086402     0.001800     NO 
 RMS     Displacement     0.045411     0.001200     NO 
 Predicted change in Energy= 1.102488D-04
 GradGradGradGradGradGradGradGradGradGradGradGradGradGradGradGradGradGrad

 ---------------------------------------------------------------------------------------------------
                            Z-MATRIX (ANGSTROMS AND DEGREES)
   CD    Cent   Atom    N1       Length/X        N2       Alpha/Y        N3        Beta/Z          J
 ---------------------------------------------------------------------------------------------------
      1      1  N 
      2      2  H        1   1.118935(     1)
      3         X        2   2.000000(     2)      1   90.000(     7)
      4      3  O        2   1.309080(     3)      3  124.879(     8)      1  180.000(    12)      0
      5      4  H        1   1.015558(     4)      2  106.904(     9)      3  130.901(    13)      0
      6      5  H        1   1.015995(     5)      2  108.793(    10)      3 -114.150(    14)      0
      7      6  H        4   0.966544(     6)      2  105.212(    11)      3  119.237(    15)      0
 ---------------------------------------------------------------------------------------------------
                         Z-Matrix orientation:                         
 ---------------------------------------------------------------------
 Center     Atomic      Atomic             Coordinates (Angstroms)
 Number     Number       Type             X           Y           Z
 ---------------------------------------------------------------------
      1          7           0        0.000000    0.000000    0.000000
      2          1           0        0.000000    0.000000    1.118935
      3         -1           0        2.000000    0.000000    1.118935
      4          8           0       -0.748600   -0.000000    2.192848
      5          1           0       -0.636215   -0.734434   -0.295287
      6          1           0       -0.393509    0.877649   -0.327303
      7          1           0       -1.267332    0.813864    2.140402
 ---------------------------------------------------------------------
                    Distance matrix (angstroms):
                    1          2          3          4          5
     1  N    0.000000
     2  H    1.118935   0.000000
     3  X    2.291728   2.000000   0.000000
     4  O    2.317107   1.309080   2.950947   0.000000
     5  H    1.015558   1.715863   3.080429   2.596698   0.000000
     6  H    1.015995   1.736872   2.931000   2.692121   1.630566
     7  H    2.617217   1.819862   3.518696   0.966544   2.954339
                    6          7
     6  H    0.000000
     7  H    2.618626   0.000000
 Stoichiometry    H4NO(2)
 Framework group  C1[X(H4NO)]
 Deg. of freedom    12
 Full point group                 C1      NOp   1
 Largest Abelian subgroup         C1      NOp   1
 Largest concise Abelian subgroup C1      NOp   1
                         Standard orientation:                         
 ---------------------------------------------------------------------
 Center     Atomic      Atomic             Coordinates (Angstroms)
 Number     Number       Type             X           Y           Z
 ---------------------------------------------------------------------
      1          7           0       -1.144161   -0.041043   -0.099725
      2          1           0       -0.074534   -0.163824   -0.404422
      3          8           0        1.170426   -0.094334   -0.005757
      4          1           0       -1.265199   -0.555920    0.767229
      5          1           0       -1.313149    0.937594    0.114650
      6          1           0        1.298597    0.824122    0.266676
 ---------------------------------------------------------------------
 Rotational constants (GHZ):         168.9691172          10.9343881          10.6836449
 Standard basis: CC-pVTZ (5D, 7F)
 There are   130 symmetry adapted cartesian basis functions of A   symmetry.
 There are   116 symmetry adapted basis functions of A   symmetry.
   116 basis functions,   172 primitive gaussians,   130 cartesian basis functions
    10 alpha electrons        9 beta electrons
       nuclear repulsion energy        37.2347138549 Hartrees.
 NAtoms=    6 NActive=    6 NUniq=    6 SFac= 1.00D+00 NAtFMM=   60 NAOKFM=F Big=F
 Integral buffers will be    131072 words long.
 Regular integral format.
 Two-electron integral symmetry is turned on.
 Nuclear repulsion after empirical dispersion term =       37.2334460963 Hartrees.
 One-electron integrals computed using PRISM.
 NBasis=   116 RedAO= T EigKep=  1.71D-03  NBF=   116
 NBsUse=   116 1.00D-06 EigRej= -1.00D+00 NBFU=   116
 Initial guess from the checkpoint file:  "/scratch/b49793/Gau-3670821.chk"
 B after Tr=     0.000000   -0.000000   -0.000000
         Rot=    0.999831    0.018300   -0.001902   -0.000666 Ang=   2.11 deg.
 Initial guess <Sx>= 0.0000 <Sy>= 0.0000 <Sz>= 0.5000 <S**2>= 0.7703 S= 0.5101
 ExpMin= 1.03D-01 ExpMax= 1.53D+04 ExpMxC= 5.22D+02 IAcc=3 IRadAn=         7 AccDes= 0.00D+00
 Harris functional with IExCor=  419 and IRadAn=       7 diagonalized for initial guess.
 HarFok:  IExCor=  419 AccDes= 0.00D+00 IRadAn=         7 IDoV= 1 UseB2=F ITyADJ=14
 ICtDFT=  3500011 ScaDFX=  1.000000  1.000000  1.000000  1.000000
 FoFCou: FMM=F IPFlag=           0 FMFlag=      100000 FMFlg1=           0
         NFxFlg=           0 DoJE=T BraDBF=F KetDBF=T FulRan=T
         wScrn=  0.000000 ICntrl=       500 IOpCl=  0 I1Cent=   200000004 NGrid=           0
         NMat0=    1 NMatS0=      1 NMatT0=    0 NMatD0=    1 NMtDS0=    0 NMtDT0=    0
 Petite list used in FoFCou.
 Keep R1 and R2 ints in memory in canonical form, NReq=74845304.
 Requested convergence on RMS density matrix=1.00D-08 within 128 cycles.
 Requested convergence on MAX density matrix=1.00D-06.
 Requested convergence on             energy=1.00D-06.
 No special actions if energy rises.
 Integral accuracy reduced to 1.0D-05 until final iterations.
 Initial convergence to 1.0D-05 achieved.  Increase integral accuracy.
 SCF Done:  E(UB2PLYPD3) =  -132.093069992     A.U. after   18 cycles
            NFock= 18  Conv=0.71D-08     -V/T= 2.0035
 <Sx>= 0.0000 <Sy>= 0.0000 <Sz>= 0.5000 <S**2>= 0.7682 S= 0.5091
 <L.S>=  0.00000000000    
 Annihilation of the first spin contaminant:
 S**2 before annihilation     0.7682,   after     0.7501
 DoSCS=T DFT=T ScalE2(SS,OS)=  0.270000  0.270000
 ExpMin= 1.03D-01 ExpMax= 1.53D+04 ExpMxC= 5.22D+02 IAcc=3 IRadAn=         7 AccDes= 0.00D+00
 HarFok:  IExCor=  205 AccDes= 0.00D+00 IRadAn=         7 IDoV=-2 UseB2=F ITyADJ=14
 ICtDFT= 12500011 ScaDFX=  1.000000  1.000000  1.000000  1.000000
 Range of M.O.s used for correlation:     3   116
 NBasis=   116 NAE=    10 NBE=     9 NFC=     2 NFV=     0
 NROrb=    114 NOA=     8 NOB=     7 NVA=   106 NVB=   107
 DoSCS=T DFT=T ScalE2(SS,OS)=  0.270000  0.270000
 Fully direct method using O(ONN) memory.
 JobTyp=2 Pass  1:  I=   3 to  10 NPSUse= 30 ParTrn=T ParDer=T DoDerP=T.
 JobTyp=3 Pass  1:  I=   3 to   9 NPSUse= 30 ParTrn=T ParDer=T DoDerP=T.
 Spin components of T(2) and E(2):
     alpha-alpha T2 =       0.2317404603D-01 E2=     -0.1996593822D-01
     alpha-beta  T2 =       0.1437436452D+00 E2=     -0.1165572150D+00
     beta-beta   T2 =       0.2929495469D-01 E2=     -0.1827085127D-01
 (S**2,0)=  0.76823D+00           (S**2,1)=  0.74149D+00
 Scaling Projection term by:   0.270000
 E(PUHF)=      -0.13209997503D+03        E(PMP2)=      -0.13224836596D+03
 E2(B2PLYPD3) =    -0.1547940045D+00 E(B2PLYPD3) =    -0.13224786399656D+03
          IDoAtm=111111
          Differentiating once with respect to electric field.
                with respect to dipole field.
          Differentiating once with respect to nuclear coordinates.
 Keep R1 and R2 ints in memory in canonical form, NReq=74849424.
          There are     1 degrees of freedom in the 1st order CPHF.  IDoFFX=0 NUNeed=     1.
 LinEq1:  Iter=  0 NonCon=     1 RMS=1.82D-03 Max=5.84D-02 NDo=     1
 AX will form     1 AO Fock derivatives at one time.
 LinEq1:  Iter=  1 NonCon=     1 RMS=4.62D-04 Max=5.03D-03 NDo=     1
 LinEq1:  Iter=  2 NonCon=     1 RMS=5.44D-04 Max=1.42D-02 NDo=     1
 LinEq1:  Iter=  3 NonCon=     1 RMS=1.74D-04 Max=2.40D-03 NDo=     1
 LinEq1:  Iter=  4 NonCon=     1 RMS=1.22D-04 Max=1.66D-03 NDo=     1
 LinEq1:  Iter=  5 NonCon=     1 RMS=4.78D-05 Max=1.33D-03 NDo=     1
 LinEq1:  Iter=  6 NonCon=     1 RMS=1.98D-05 Max=3.94D-04 NDo=     1
 LinEq1:  Iter=  7 NonCon=     1 RMS=5.47D-06 Max=6.65D-05 NDo=     1
 LinEq1:  Iter=  8 NonCon=     1 RMS=1.73D-06 Max=4.15D-05 NDo=     1
 LinEq1:  Iter=  9 NonCon=     1 RMS=5.10D-07 Max=7.04D-06 NDo=     1
 LinEq1:  Iter= 10 NonCon=     1 RMS=1.31D-07 Max=2.28D-06 NDo=     1
 LinEq1:  Iter= 11 NonCon=     1 RMS=3.19D-08 Max=3.44D-07 NDo=     1
 LinEq1:  Iter= 12 NonCon=     1 RMS=1.06D-08 Max=8.64D-08 NDo=     1
 LinEq1:  Iter= 13 NonCon=     1 RMS=2.26D-09 Max=2.09D-08 NDo=     1
 LinEq1:  Iter= 14 NonCon=     1 RMS=4.75D-10 Max=4.23D-09 NDo=     1
 LinEq1:  Iter= 15 NonCon=     1 RMS=1.09D-10 Max=9.26D-10 NDo=     1
 LinEq1:  Iter= 16 NonCon=     0 RMS=2.35D-11 Max=1.91D-10 NDo=     1
 Linear equations converged to 1.000D-10 1.000D-09 after    16 iterations.
 End of Minotr F.D. properties file   721 does not exist.
 End of Minotr F.D. properties file   722 does not exist.
 End of Minotr F.D. properties file   788 does not exist.
 Calling FoFJK, ICntrl=  10002127 FMM=F ISym2X=0 I1Cent= 0 IOpClX= 1 NMat=1 NMatS=1 NMatT=0.
 ***** Axes restored to original set *****
 -------------------------------------------------------------------
 Center     Atomic                   Forces (Hartrees/Bohr)
 Number     Number              X              Y              Z
 -------------------------------------------------------------------
      1        7          -0.000165182    0.000043616   -0.002020843
      2        1           0.000329386    0.000022795    0.001648327
      3        8          -0.000360275    0.000030812    0.000729653
      4        1           0.000059774    0.000006500   -0.000168448
      5        1           0.000087985   -0.000036114   -0.000188388
      6        1           0.000048313   -0.000067610   -0.000000300
 -------------------------------------------------------------------
 Cartesian Forces:  Max     0.002020843 RMS     0.000653434
 -----------------------------------------------------------------------------------------------
                       Internal Coordinate Forces (Hartree/Bohr or radian)
  Cent   Atom   N1       Length/X         N2         Alpha/Y        N3         Beta/Z          J
 -----------------------------------------------------------------------------------------------
      1  N 
      2  H        1   0.002378(     1)
         X        2  -0.000000(     2)      1  -0.000394(     7)
      3  O        2   0.000777(     3)      3  -0.000394(     8)      1  -0.000068(    12)     0
      4  H        1   0.000007(     4)      2   0.000334(     9)      3  -0.000075(    13)     0
      5  H        1  -0.000005(     5)      2   0.000385(    10)      3   0.000119(    14)     0
      6  H        4  -0.000083(     6)      2  -0.000012(    11)      3  -0.000002(    15)     0
 -----------------------------------------------------------------------------------------------
 Internal  Forces:  Max     0.002377679 RMS     0.000676151

 GradGradGradGradGradGradGradGradGradGradGradGradGradGradGradGradGradGrad
 Berny optimization.
 Search for a saddle point.
 Step number   2 out of a maximum of   22
 All quantities printed in internal units (Hartrees-Bohrs-Radians)
 Swapping is turned off.
 Update second derivatives using D2CorN and points    1    2
 The second derivative matrix:
                         rnh1      rnh2a     rnh2b      roh      ahox
           rnh1         0.15894
           rnh2a       -0.00517   0.44183
           rnh2b       -0.00524  -0.00347   0.44004
           roh          0.00255   0.00034   0.00089   0.51340
           ahox        -0.01002   0.00390   0.00246   0.00188   0.04754
           ahnha        0.00630   0.00208  -0.01037   0.00019  -0.00055
           ahnhb        0.00506  -0.00934   0.00167   0.00117  -0.00183
           ahoh         0.01095  -0.00018   0.00104   0.00876  -0.00141
           b1a         -0.00392  -0.02150  -0.02383  -0.00104   0.00760
           b1b          0.00547   0.02273   0.02220   0.00067  -0.00572
           bp          -0.00113   0.00010  -0.00002   0.00096   0.00500
           rts          0.13361   0.00178   0.00276  -0.00481  -0.02360
                         ahnha     ahnhb     ahoh       b1a       b1b
           ahnha        0.12729
           ahnhb        0.03602   0.12862
           ahoh        -0.00075  -0.00108   0.08287
           b1a          0.05917   0.05952  -0.00021   0.11223
           b1b         -0.05935  -0.05567  -0.00549  -0.10461   0.10791
           bp          -0.00143   0.00354  -0.00717   0.00273  -0.00081
           rts          0.00738   0.00933   0.00648   0.00078  -0.00145
                          bp        rts
           bp           0.00455
           rts         -0.00337   0.06696
 ITU=  0  0
     Eigenvalues ---   -0.03120   0.00295   0.00538   0.04622   0.06791
     Eigenvalues ---    0.08365   0.09199   0.25816   0.29833   0.44477
     Eigenvalues ---    0.45036   0.51367
 Eigenvectors required to have negative eigenvalues:
                          rts      rnh1      ahox       bp        b1b
   1                    0.80775  -0.56064   0.17175   0.03961   0.03562
                         ahnhb     rnh2b     ahoh      rnh2a      roh
   1                   -0.01632  -0.01367   0.01349  -0.01284   0.00889
 RFO step:  Lambda0=1.924620308D-05 Lambda=-2.56010552D-05.
 Linear search not attempted -- option 19 set.
 Variable       Old X    -DE/DX   Delta X   Delta X   Delta X     New X
                                 (Linear)    (Quad)   (Total)
   rnh1       2.11448   0.00238   0.00000  -0.00626  -0.00626   2.10822
  rnh2a       1.91913   0.00001   0.00000  -0.00042  -0.00042   1.91870
  rnh2b       1.91995  -0.00000   0.00000  -0.00044  -0.00044   1.91951
   roh        1.82650  -0.00008   0.00000   0.00005   0.00005   1.82655
   ahox       2.17956  -0.00039   0.00000   0.00203   0.00203   2.18159
  ahnha       1.86582   0.00033   0.00000   0.00340   0.00340   1.86922
  ahnhb       1.89880   0.00039   0.00000   0.00228   0.00228   1.90108
   ahoh       1.83630  -0.00001   0.00000   0.00053   0.00053   1.83682
   b1a        2.28466  -0.00008   0.00000   0.00147   0.00147   2.28612
   b1b       -1.99229   0.00012   0.00000   0.00665   0.00665  -1.98564
    bp        2.08107  -0.00000   0.00000   0.01451   0.01451   2.09559
   rts        2.47380   0.00078   0.00000   0.02497   0.02497   2.49877
         Item               Value     Threshold  Converged?
 Maximum Force            0.002378     0.000450     NO 
 RMS     Force            0.000747     0.000300     NO 
 Maximum Displacement     0.024966     0.001800     NO 
 RMS     Displacement     0.008856     0.001200     NO 
 Predicted change in Energy=-3.171475D-06
 GradGradGradGradGradGradGradGradGradGradGradGradGradGradGradGradGradGrad

 ---------------------------------------------------------------------------------------------------
                            Z-MATRIX (ANGSTROMS AND DEGREES)
   CD    Cent   Atom    N1       Length/X        N2       Alpha/Y        N3        Beta/Z          J
 ---------------------------------------------------------------------------------------------------
      1      1  N 
      2      2  H        1   1.115620(     1)
      3         X        2   2.000000(     2)      1   90.000(     7)
      4      3  O        2   1.322291(     3)      3  124.996(     8)      1  180.000(    12)      0
      5      4  H        1   1.015334(     4)      2  107.099(     9)      3  130.985(    13)      0
      6      5  H        1   1.015761(     5)      2  108.924(    10)      3 -113.769(    14)      0
      7      6  H        4   0.966570(     6)      2  105.242(    11)      3  120.068(    15)      0
 ---------------------------------------------------------------------------------------------------
                         Z-Matrix orientation:                         
 ---------------------------------------------------------------------
 Center     Atomic      Atomic             Coordinates (Angstroms)
 Number     Number       Type             X           Y           Z
 ---------------------------------------------------------------------
      1          7           0        0.000000    0.000000    0.000000
      2          1           0        0.000000    0.000000    1.115620
      3         -1           0        2.000000    0.000000    1.115620
      4          8           0       -0.758360   -0.000000    2.198830
      5          1           0       -0.636489   -0.732577   -0.298526
      6          1           0       -0.387273    0.879358   -0.329424
      7          1           0       -1.286863    0.807072    2.139022
 ---------------------------------------------------------------------
                    Distance matrix (angstroms):
                    1          2          3          4          5
     1  N    0.000000
     2  H    1.115620   0.000000
     3  X    2.290111   2.000000   0.000000
     4  O    2.325933   1.322291   2.963426   0.000000
     5  H    1.015334   1.715108   3.080187   2.605438   0.000000
     6  H    1.015761   1.735339   2.925832   2.702415   1.631378
     7  H    2.623509   1.831593   3.535843   0.966570   2.955528
                    6          7
     6  H    0.000000
     7  H    2.628253   0.000000
 Stoichiometry    H4NO(2)
 Framework group  C1[X(H4NO)]
 Deg. of freedom    12
 Full point group                 C1      NOp   1
 Largest Abelian subgroup         C1      NOp   1
 Largest concise Abelian subgroup C1      NOp   1
                         Standard orientation:                         
 ---------------------------------------------------------------------
 Center     Atomic      Atomic             Coordinates (Angstroms)
 Number     Number       Type             X           Y           Z
 ---------------------------------------------------------------------
      1          7           0       -1.147899   -0.042116   -0.098651
      2          1           0       -0.082753   -0.166734   -0.406129
      3          8           0        1.175640   -0.093777   -0.006656
      4          1           0       -1.268437   -0.549454    0.772545
      5          1           0       -1.319505    0.938146    0.104837
      6          1           0        1.300866    0.823075    0.272554
 ---------------------------------------------------------------------
 Rotational constants (GHZ):         168.8989671          10.8512009          10.6076960
 Standard basis: CC-pVTZ (5D, 7F)
 There are   130 symmetry adapted cartesian basis functions of A   symmetry.
 There are   116 symmetry adapted basis functions of A   symmetry.
   116 basis functions,   172 primitive gaussians,   130 cartesian basis functions
    10 alpha electrons        9 beta electrons
       nuclear repulsion energy        37.1479464708 Hartrees.
 NAtoms=    6 NActive=    6 NUniq=    6 SFac= 1.00D+00 NAtFMM=   60 NAOKFM=F Big=F
 Integral buffers will be    131072 words long.
 Regular integral format.
 Two-electron integral symmetry is turned on.
 Nuclear repulsion after empirical dispersion term =       37.1466765145 Hartrees.
 One-electron integrals computed using PRISM.
 NBasis=   116 RedAO= T EigKep=  1.71D-03  NBF=   116
 NBsUse=   116 1.00D-06 EigRej= -1.00D+00 NBFU=   116
 Initial guess from the checkpoint file:  "/scratch/b49793/Gau-3670821.chk"
 B after Tr=    -0.000000    0.000000    0.000000
         Rot=    0.999997    0.002307   -0.000118   -0.000139 Ang=   0.27 deg.
 Initial guess <Sx>= 0.0000 <Sy>= 0.0000 <Sz>= 0.5000 <S**2>= 0.7683 S= 0.5091
 ExpMin= 1.03D-01 ExpMax= 1.53D+04 ExpMxC= 5.22D+02 IAcc=3 IRadAn=         7 AccDes= 0.00D+00
 Harris functional with IExCor=  419 and IRadAn=       7 diagonalized for initial guess.
 HarFok:  IExCor=  419 AccDes= 0.00D+00 IRadAn=         7 IDoV= 1 UseB2=F ITyADJ=14
 ICtDFT=  3500011 ScaDFX=  1.000000  1.000000  1.000000  1.000000
 FoFCou: FMM=F IPFlag=           0 FMFlag=      100000 FMFlg1=           0
         NFxFlg=           0 DoJE=T BraDBF=F KetDBF=T FulRan=T
         wScrn=  0.000000 ICntrl=       500 IOpCl=  0 I1Cent=   200000004 NGrid=           0
         NMat0=    1 NMatS0=      1 NMatT0=    0 NMatD0=    1 NMtDS0=    0 NMtDT0=    0
 Petite list used in FoFCou.
 Keep R1 and R2 ints in memory in canonical form, NReq=74845304.
 Requested convergence on RMS density matrix=1.00D-08 within 128 cycles.
 Requested convergence on MAX density matrix=1.00D-06.
 Requested convergence on             energy=1.00D-06.
 No special actions if energy rises.
 Integral accuracy reduced to 1.0D-05 until final iterations.
 Initial convergence to 1.0D-05 achieved.  Increase integral accuracy.
 SCF Done:  E(UB2PLYPD3) =  -132.093424530     A.U. after   16 cycles
            NFock= 16  Conv=0.64D-08     -V/T= 2.0035
 <Sx>= 0.0000 <Sy>= 0.0000 <Sz>= 0.5000 <S**2>= 0.7680 S= 0.5090
 <L.S>=  0.00000000000    
 Annihilation of the first spin contaminant:
 S**2 before annihilation     0.7680,   after     0.7501
 DoSCS=T DFT=T ScalE2(SS,OS)=  0.270000  0.270000
 ExpMin= 1.03D-01 ExpMax= 1.53D+04 ExpMxC= 5.22D+02 IAcc=3 IRadAn=         7 AccDes= 0.00D+00
 HarFok:  IExCor=  205 AccDes= 0.00D+00 IRadAn=         7 IDoV=-2 UseB2=F ITyADJ=14
 ICtDFT= 12500011 ScaDFX=  1.000000  1.000000  1.000000  1.000000
 Range of M.O.s used for correlation:     3   116
 NBasis=   116 NAE=    10 NBE=     9 NFC=     2 NFV=     0
 NROrb=    114 NOA=     8 NOB=     7 NVA=   106 NVB=   107
 DoSCS=T DFT=T ScalE2(SS,OS)=  0.270000  0.270000
 Fully direct method using O(ONN) memory.
 JobTyp=2 Pass  1:  I=   3 to  10 NPSUse= 30 ParTrn=T ParDer=T DoDerP=T.
 JobTyp=3 Pass  1:  I=   3 to   9 NPSUse= 30 ParTrn=T ParDer=T DoDerP=T.
 Spin components of T(2) and E(2):
     alpha-alpha T2 =       0.2312684276D-01 E2=     -0.1993370975D-01
     alpha-beta  T2 =       0.1433288228D+00 E2=     -0.1163485384D+00
     beta-beta   T2 =       0.2907092822D-01 E2=     -0.1816348732D-01
 (S**2,0)=  0.76799D+00           (S**2,1)=  0.74170D+00
 Scaling Projection term by:   0.270000
 E(PUHF)=      -0.13210022643D+03        E(PMP2)=      -0.13224836978D+03
 E2(B2PLYPD3) =    -0.1544457355D+00 E(B2PLYPD3) =    -0.13224787026554D+03
          IDoAtm=111111
          Differentiating once with respect to electric field.
                with respect to dipole field.
          Differentiating once with respect to nuclear coordinates.
 Keep R1 and R2 ints in memory in canonical form, NReq=74849424.
          There are     1 degrees of freedom in the 1st order CPHF.  IDoFFX=0 NUNeed=     1.
 LinEq1:  Iter=  0 NonCon=     1 RMS=1.89D-03 Max=6.31D-02 NDo=     1
 AX will form     1 AO Fock derivatives at one time.
 LinEq1:  Iter=  1 NonCon=     1 RMS=4.87D-04 Max=4.97D-03 NDo=     1
 LinEq1:  Iter=  2 NonCon=     1 RMS=5.73D-04 Max=1.45D-02 NDo=     1
 LinEq1:  Iter=  3 NonCon=     1 RMS=1.74D-04 Max=2.27D-03 NDo=     1
 LinEq1:  Iter=  4 NonCon=     1 RMS=1.21D-04 Max=1.66D-03 NDo=     1
 LinEq1:  Iter=  5 NonCon=     1 RMS=4.77D-05 Max=1.34D-03 NDo=     1
 LinEq1:  Iter=  6 NonCon=     1 RMS=1.99D-05 Max=4.06D-04 NDo=     1
 LinEq1:  Iter=  7 NonCon=     1 RMS=5.50D-06 Max=6.69D-05 NDo=     1
 LinEq1:  Iter=  8 NonCon=     1 RMS=1.75D-06 Max=4.24D-05 NDo=     1
 LinEq1:  Iter=  9 NonCon=     1 RMS=5.13D-07 Max=7.08D-06 NDo=     1
 LinEq1:  Iter= 10 NonCon=     1 RMS=1.32D-07 Max=2.31D-06 NDo=     1
 LinEq1:  Iter= 11 NonCon=     1 RMS=3.29D-08 Max=3.49D-07 NDo=     1
 LinEq1:  Iter= 12 NonCon=     1 RMS=1.09D-08 Max=9.94D-08 NDo=     1
 LinEq1:  Iter= 13 NonCon=     1 RMS=2.29D-09 Max=2.14D-08 NDo=     1
 LinEq1:  Iter= 14 NonCon=     1 RMS=4.73D-10 Max=4.29D-09 NDo=     1
 LinEq1:  Iter= 15 NonCon=     1 RMS=1.10D-10 Max=9.88D-10 NDo=     1
 LinEq1:  Iter= 16 NonCon=     0 RMS=2.42D-11 Max=2.24D-10 NDo=     1
 Linear equations converged to 1.000D-10 1.000D-09 after    16 iterations.
 End of Minotr F.D. properties file   721 does not exist.
 End of Minotr F.D. properties file   722 does not exist.
 End of Minotr F.D. properties file   788 does not exist.
 Calling FoFJK, ICntrl=  10002127 FMM=F ISym2X=0 I1Cent= 0 IOpClX= 1 NMat=1 NMatS=1 NMatT=0.
 ***** Axes restored to original set *****
 -------------------------------------------------------------------
 Center     Atomic                   Forces (Hartrees/Bohr)
 Number     Number              X              Y              Z
 -------------------------------------------------------------------
      1        7          -0.000010227    0.000014697   -0.000302989
      2        1           0.000229919   -0.000012841    0.000017200
      3        8          -0.000210053   -0.000004640    0.000275448
      4        1          -0.000001950    0.000024946    0.000019163
      5        1          -0.000008665   -0.000023930    0.000011026
      6        1           0.000000976    0.000001768   -0.000019847
 -------------------------------------------------------------------
 Cartesian Forces:  Max     0.000302989 RMS     0.000121934
 -----------------------------------------------------------------------------------------------
                       Internal Coordinate Forces (Hartree/Bohr or radian)
  Cent   Atom   N1       Length/X         N2         Alpha/Y        N3         Beta/Z          J
 -----------------------------------------------------------------------------------------------
      1  N 
      2  H        1   0.000273(     1)
         X        2   0.000000(     2)      1   0.000082(     7)
      3  O        2   0.000329(     3)      3   0.000082(     8)      1   0.000024(    12)     0
      4  H        1  -0.000022(     4)      2  -0.000025(     9)      3   0.000033(    13)     0
      5  H        1  -0.000021(     5)      2  -0.000009(    10)      3  -0.000032(    14)     0
      6  H        4   0.000002(     6)      2  -0.000033(    11)      3   0.000015(    15)     0
 -----------------------------------------------------------------------------------------------
 Internal  Forces:  Max     0.000329296 RMS     0.000115989

 GradGradGradGradGradGradGradGradGradGradGradGradGradGradGradGradGradGrad
 Berny optimization.
 Search for a saddle point.
 Step number   3 out of a maximum of   22
 All quantities printed in internal units (Hartrees-Bohrs-Radians)
 Swapping is turned off.
 Update second derivatives using D2CorN and points    1    2    3
 The second derivative matrix:
                         rnh1      rnh2a     rnh2b      roh      ahox
           rnh1         0.16341
           rnh2a       -0.00514   0.44182
           rnh2b       -0.00521  -0.00349   0.44002
           roh          0.00253   0.00034   0.00089   0.51340
           ahox        -0.01156   0.00399   0.00255   0.00193   0.04705
           ahnha        0.00608   0.00211  -0.01034   0.00018  -0.00073
           ahnhb        0.00515  -0.00931   0.00169   0.00116  -0.00203
           ahoh         0.01092  -0.00019   0.00103   0.00875  -0.00127
           b1a         -0.00402  -0.02148  -0.02381  -0.00104   0.00753
           b1b          0.00463   0.02279   0.02225   0.00065  -0.00584
           bp          -0.00405   0.00029   0.00016   0.00097   0.00427
           rts          0.13074   0.00221   0.00317  -0.00480  -0.02602
                         ahnha     ahnhb     ahoh       b1a       b1b
           ahnha        0.12743
           ahnhb        0.03612   0.12871
           ahoh        -0.00069  -0.00103   0.08286
           b1a          0.05913   0.05949  -0.00020   0.11218
           b1b         -0.05918  -0.05557  -0.00539  -0.10470   0.10813
           bp          -0.00126   0.00355  -0.00685   0.00250  -0.00048
           rts          0.00730   0.00920   0.00703   0.00015  -0.00180
                          bp        rts
           bp           0.00447
           rts         -0.00629   0.05763
 ITU=  0  0  0
     Eigenvalues ---   -0.03400   0.00296   0.00553   0.04561   0.06818
     Eigenvalues ---    0.08353   0.09198   0.25623   0.29831   0.44477
     Eigenvalues ---    0.45035   0.51367
 Eigenvectors required to have negative eigenvalues:
                          rts      rnh1      ahox       bp        b1b
   1                    0.82149  -0.53331   0.18729   0.06053   0.03424
                         ahnhb     rnh2b     rnh2a      roh      ahoh
   1                   -0.01796  -0.01398  -0.01319   0.00882   0.00684
 RFO step:  Lambda0=5.822873650D-07 Lambda=-9.68345687D-07.
 Linear search not attempted -- option 19 set.
 Variable       Old X    -DE/DX   Delta X   Delta X   Delta X     New X
                                 (Linear)    (Quad)   (Total)
   rnh1       2.10822   0.00027   0.00000   0.00403   0.00403   2.11225
  rnh2a       1.91870  -0.00002   0.00000   0.00005   0.00005   1.91875
  rnh2b       1.91951  -0.00002   0.00000   0.00005   0.00005   1.91956
   roh        1.82655   0.00000   0.00000  -0.00003  -0.00003   1.82652
   ahox       2.18159   0.00008   0.00000   0.00098   0.00098   2.18257
  ahnha       1.86922  -0.00003   0.00000  -0.00057  -0.00057   1.86865
  ahnhb       1.90108  -0.00001   0.00000  -0.00028  -0.00028   1.90080
   ahoh       1.83682  -0.00003   0.00000  -0.00069  -0.00069   1.83614
   b1a        2.28612   0.00003   0.00000  -0.00096  -0.00096   2.28516
   b1b       -1.98564  -0.00003   0.00000  -0.00189  -0.00189  -1.98753
    bp        2.09559   0.00001   0.00000   0.00156   0.00156   2.09715
   rts        2.49877   0.00033   0.00000  -0.00268  -0.00268   2.49609
         Item               Value     Threshold  Converged?
 Maximum Force            0.000329     0.000450     YES
 RMS     Force            0.000127     0.000300     YES
 Maximum Displacement     0.004029     0.001800     NO 
 RMS     Displacement     0.001637     0.001200     NO 
 Predicted change in Energy=-1.930242D-07
 GradGradGradGradGradGradGradGradGradGradGradGradGradGradGradGradGradGrad

 ---------------------------------------------------------------------------------------------------
                            Z-MATRIX (ANGSTROMS AND DEGREES)
   CD    Cent   Atom    N1       Length/X        N2       Alpha/Y        N3        Beta/Z          J
 ---------------------------------------------------------------------------------------------------
      1      1  N 
      2      2  H        1   1.117752(     1)
      3         X        2   2.000000(     2)      1   90.000(     7)
      4      3  O        2   1.320874(     3)      3  125.052(     8)      1  180.000(    12)      0
      5      4  H        1   1.015360(     4)      2  107.066(     9)      3  130.930(    13)      0
      6      5  H        1   1.015786(     5)      2  108.908(    10)      3 -113.877(    14)      0
      7      6  H        4   0.966552(     6)      2  105.203(    11)      3  120.158(    15)      0
 ---------------------------------------------------------------------------------------------------
                         Z-Matrix orientation:                         
 ---------------------------------------------------------------------
 Center     Atomic      Atomic             Coordinates (Angstroms)
 Number     Number       Type             X           Y           Z
 ---------------------------------------------------------------------
      1          7           0        0.000000    0.000000    0.000000
      2          1           0        0.000000    0.000000    1.117752
      3         -1           0        2.000000    0.000000    1.117752
      4          8           0       -0.758604   -0.000000    2.199061
      5          1           0       -0.635912   -0.733334   -0.297980
      6          1           0       -0.388983    0.878729   -0.329163
      7          1           0       -1.287772    0.806478    2.137441
 ---------------------------------------------------------------------
                    Distance matrix (angstroms):
                    1          2          3          4          5
     1  N    0.000000
     2  H    1.117752   0.000000
     3  X    2.291150   2.000000   0.000000
     4  O    2.326231   1.320874   2.962958   0.000000
     5  H    1.015360   1.716526   3.080602   2.605388   0.000000
     6  H    1.015786   1.736962   2.927963   2.701981   1.631164
     7  H    2.622483   1.829898   3.535479   0.966552   2.954186
                    6          7
     6  H    0.000000
     7  H    2.626248   0.000000
 Stoichiometry    H4NO(2)
 Framework group  C1[X(H4NO)]
 Deg. of freedom    12
 Full point group                 C1      NOp   1
 Largest Abelian subgroup         C1      NOp   1
 Largest concise Abelian subgroup C1      NOp   1
                         Standard orientation:                         
 ---------------------------------------------------------------------
 Center     Atomic      Atomic             Coordinates (Angstroms)
 Number     Number       Type             X           Y           Z
 ---------------------------------------------------------------------
      1          7           0       -1.148123   -0.042241   -0.098690
      2          1           0       -0.080956   -0.167792   -0.406525
      3          8           0        1.175710   -0.093716   -0.006513
      4          1           0       -1.268312   -0.548613    0.773146
      5          1           0       -1.318966    0.938274    0.104343
      6          1           0        1.299414    0.823546    0.271969
 ---------------------------------------------------------------------
 Rotational constants (GHZ):         168.8247299          10.8500338          10.6066846
 Standard basis: CC-pVTZ (5D, 7F)
 There are   130 symmetry adapted cartesian basis functions of A   symmetry.
 There are   116 symmetry adapted basis functions of A   symmetry.
   116 basis functions,   172 primitive gaussians,   130 cartesian basis functions
    10 alpha electrons        9 beta electrons
       nuclear repulsion energy        37.1441614973 Hartrees.
 NAtoms=    6 NActive=    6 NUniq=    6 SFac= 1.00D+00 NAtFMM=   60 NAOKFM=F Big=F
 Integral buffers will be    131072 words long.
 Regular integral format.
 Two-electron integral symmetry is turned on.
 Nuclear repulsion after empirical dispersion term =       37.1428917568 Hartrees.
 One-electron integrals computed using PRISM.
 NBasis=   116 RedAO= T EigKep=  1.71D-03  NBF=   116
 NBsUse=   116 1.00D-06 EigRej= -1.00D+00 NBFU=   116
 Initial guess from the checkpoint file:  "/scratch/b49793/Gau-3670821.chk"
 B after Tr=     0.000000   -0.000000   -0.000000
         Rot=    1.000000    0.000452    0.000031   -0.000038 Ang=   0.05 deg.
 Initial guess <Sx>= 0.0000 <Sy>= 0.0000 <Sz>= 0.5000 <S**2>= 0.7680 S= 0.5090
 Keep R1 and R2 ints in memory in canonical form, NReq=74845304.
 Requested convergence on RMS density matrix=1.00D-08 within 128 cycles.
 Requested convergence on MAX density matrix=1.00D-06.
 Requested convergence on             energy=1.00D-06.
 No special actions if energy rises.
 SCF Done:  E(UB2PLYPD3) =  -132.093351497     A.U. after   14 cycles
            NFock= 14  Conv=0.35D-08     -V/T= 2.0036
 <Sx>= 0.0000 <Sy>= 0.0000 <Sz>= 0.5000 <S**2>= 0.7681 S= 0.5090
 <L.S>=  0.00000000000    
 Annihilation of the first spin contaminant:
 S**2 before annihilation     0.7681,   after     0.7501
 DoSCS=T DFT=T ScalE2(SS,OS)=  0.270000  0.270000
 ExpMin= 1.03D-01 ExpMax= 1.53D+04 ExpMxC= 5.22D+02 IAcc=3 IRadAn=         7 AccDes= 0.00D+00
 HarFok:  IExCor=  205 AccDes= 0.00D+00 IRadAn=         7 IDoV=-2 UseB2=F ITyADJ=14
 ICtDFT= 12500011 ScaDFX=  1.000000  1.000000  1.000000  1.000000
 Range of M.O.s used for correlation:     3   116
 NBasis=   116 NAE=    10 NBE=     9 NFC=     2 NFV=     0
 NROrb=    114 NOA=     8 NOB=     7 NVA=   106 NVB=   107
 DoSCS=T DFT=T ScalE2(SS,OS)=  0.270000  0.270000
 Fully direct method using O(ONN) memory.
 JobTyp=2 Pass  1:  I=   3 to  10 NPSUse= 30 ParTrn=T ParDer=T DoDerP=T.
 JobTyp=3 Pass  1:  I=   3 to   9 NPSUse= 30 ParTrn=T ParDer=T DoDerP=T.
 Spin components of T(2) and E(2):
     alpha-alpha T2 =       0.2314354073D-01 E2=     -0.1994070478D-01
     alpha-beta  T2 =       0.1434733936D+00 E2=     -0.1163946911D+00
     beta-beta   T2 =       0.2912632577D-01 E2=     -0.1818320014D-01
 (S**2,0)=  0.76813D+00           (S**2,1)=  0.74166D+00
 Scaling Projection term by:   0.270000
 E(PUHF)=      -0.13210018897D+03        E(PMP2)=      -0.13224837309D+03
 E2(B2PLYPD3) =    -0.1545185960D+00 E(B2PLYPD3) =    -0.13224787009259D+03
          IDoAtm=111111
          Differentiating once with respect to electric field.
                with respect to dipole field.
          Differentiating once with respect to nuclear coordinates.
 Keep R1 and R2 ints in memory in canonical form, NReq=74849424.
          There are     1 degrees of freedom in the 1st order CPHF.  IDoFFX=0 NUNeed=     1.
 LinEq1:  Iter=  0 NonCon=     1 RMS=1.88D-03 Max=6.23D-02 NDo=     1
 AX will form     1 AO Fock derivatives at one time.
 LinEq1:  Iter=  1 NonCon=     1 RMS=4.83D-04 Max=5.00D-03 NDo=     1
 LinEq1:  Iter=  2 NonCon=     1 RMS=5.69D-04 Max=1.45D-02 NDo=     1
 LinEq1:  Iter=  3 NonCon=     1 RMS=1.75D-04 Max=2.29D-03 NDo=     1
 LinEq1:  Iter=  4 NonCon=     1 RMS=1.22D-04 Max=1.66D-03 NDo=     1
 LinEq1:  Iter=  5 NonCon=     1 RMS=4.78D-05 Max=1.34D-03 NDo=     1
 LinEq1:  Iter=  6 NonCon=     1 RMS=1.99D-05 Max=4.05D-04 NDo=     1
 LinEq1:  Iter=  7 NonCon=     1 RMS=5.52D-06 Max=6.72D-05 NDo=     1
 LinEq1:  Iter=  8 NonCon=     1 RMS=1.75D-06 Max=4.24D-05 NDo=     1
 LinEq1:  Iter=  9 NonCon=     1 RMS=5.14D-07 Max=7.11D-06 NDo=     1
 LinEq1:  Iter= 10 NonCon=     1 RMS=1.33D-07 Max=2.32D-06 NDo=     1
 LinEq1:  Iter= 11 NonCon=     1 RMS=3.29D-08 Max=3.49D-07 NDo=     1
 LinEq1:  Iter= 12 NonCon=     1 RMS=1.09D-08 Max=9.82D-08 NDo=     1
 LinEq1:  Iter= 13 NonCon=     1 RMS=2.29D-09 Max=2.14D-08 NDo=     1
 LinEq1:  Iter= 14 NonCon=     1 RMS=4.75D-10 Max=4.30D-09 NDo=     1
 LinEq1:  Iter= 15 NonCon=     1 RMS=1.10D-10 Max=9.82D-10 NDo=     1
 LinEq1:  Iter= 16 NonCon=     0 RMS=2.42D-11 Max=2.15D-10 NDo=     1
 Linear equations converged to 1.000D-10 1.000D-09 after    16 iterations.
 End of Minotr F.D. properties file   721 does not exist.
 End of Minotr F.D. properties file   722 does not exist.
 End of Minotr F.D. properties file   788 does not exist.
 Calling FoFJK, ICntrl=  10002127 FMM=F ISym2X=0 I1Cent= 0 IOpClX= 1 NMat=1 NMatS=1 NMatT=0.
 ***** Axes restored to original set *****
 -------------------------------------------------------------------
 Center     Atomic                   Forces (Hartrees/Bohr)
 Number     Number              X              Y              Z
 -------------------------------------------------------------------
      1        7           0.000019812   -0.000018112    0.000173866
      2        1          -0.000023994    0.000026117   -0.000167201
      3        8           0.000006900   -0.000011223   -0.000024879
      4        1          -0.000005544   -0.000004490    0.000003793
      5        1          -0.000002628    0.000005276    0.000005184
      6        1           0.000005453    0.000002431    0.000009238
 -------------------------------------------------------------------
 Cartesian Forces:  Max     0.000173866 RMS     0.000058312
 -----------------------------------------------------------------------------------------------
                       Internal Coordinate Forces (Hartree/Bohr or radian)
  Cent   Atom   N1       Length/X         N2         Alpha/Y        N3         Beta/Z          J
 -----------------------------------------------------------------------------------------------
      1  N 
      2  H        1  -0.000183(     1)
         X        2  -0.000000(     2)      1  -0.000011(     7)
      3  O        2  -0.000020(     3)      3  -0.000011(     8)      1  -0.000032(    12)     0
      4  H        1   0.000006(     4)      2  -0.000011(     9)      3   0.000002(    13)     0
      5  H        1   0.000004(     5)      2  -0.000013(    10)      3  -0.000000(    14)     0
      6  H        4  -0.000002(     6)      2   0.000009(    11)      3  -0.000017(    15)     0
 -----------------------------------------------------------------------------------------------
 Internal  Forces:  Max     0.000182842 RMS     0.000048889

[...]
 47,-0.00051893,-0.00004286,0.00053456,-0.04987396,-0.04491729,0.032329
 80,0.02095556,-0.01296236,0.00127918,0.00309894,0.00693275,0.00058459,
 -0.00048687,-0.00494569,-0.03326684,-0.02203806,0.01173428,-0.00029699
 ,-0.00523845,0.00652733,0.00021645,-0.00010089,-0.00185335,-0.00035905
 ,-0.00002163,0.00155544,-0.00029092,0.00105943,-0.00134653,0.00071101,
 -0.00301047,0.01097951,-0.00423661,0.00020175,-0.00026900,-0.00056807,
 0.00034949,0.00023000,-0.00031752,-0.00160843,-0.00080492,-0.00115468,
 0.00419358,-0.01040628,0.00487278,-0.00534930,0.00001839,0.00069457,-0
 .00197010,0.00237869,0.00026269,0.00008294,-0.00146824,-0.00062821,0.0
 0084684,-0.00074568,-0.00530830,0.00629008,0.00053892,0.00007034,0.000
 58071,0.00008059,0.00082177,-0.00118281,-0.00125914,0.00797266,-0.0214
 8933,-0.00065084,0.00001603,0.00003412,0.00041981,0.00001949,-0.000125
 91,0.00010646,-0.00890029,-0.00029153,-0.00016414,0.00034211,-0.000224
 77,0.00020193,0.00067282,-0.02203700,0.02757548,-0.00412907,0.00026212
 ,-0.00006957,-0.00037489,0.00010797,0.00027069,0.00009954,0.02218322,-
 0.02781438,0.00123979,0.00035093,-0.00228040,-0.00188163,0.00073236,0.
 00204416,-0.00062222,-0.00425211,-0.01227955,-0.00046446,-0.00020747,-
 0.00001330,0.00042541,-0.00001320,-0.00072209,0.00130312,0.00338949,0.
 01325118,-0.05955225,-0.00811540,-0.36549880,-0.15268257,0.05727920,0.
 00185623,-0.00733879,0.00032907,0.00176140,-0.00038137,-0.00011394,-0.
 01401144,-0.00002062,0.00091111,0.02385718,0.00749194,-0.00430715,0.08
 034683,0.00569686,0.00258230,-0.09519841,0.00032223,-0.00111180,-0.004
 56150,0.00712357,0.00044054,-0.00869999,-0.05919903,0.00031493,-0.0022
 2833,-0.00093734,-0.00143517,-0.00024090,0.00013564,0.13175511,-0.1688
 3266,-0.00091071,0.00191755,0.00609613,-0.01075838,-0.00181863,0.00893
 147,-0.01084802,0.01333138,0.06484662,0.06827067,0.13385764,0.07370795
 ,-0.00083243,-0.00087793,-0.00200533,-0.00038758,-0.00052703,0.0010609
 2,-0.06333955,0.12449163,0.12697433,0.04712102,-0.00421390,-0.00308530
 ,-0.00078414,0.00030016,0.00119896,-0.00005676,-0.13080808,-0.14364950
 ,0.07032733,0.04970904,-0.03988000,0.00387977,0.00618065,0.00191991,0.
 00059132,-0.00251077,-0.00179454,-0.07723892,-0.04883153,0.04798802,-0
 .00131067,-0.12556891,0.08174365,0.00037500,0.00055468,-0.00369651,-0.
 00091106,0.00006053,0.00214696,-0.00354601,0.01061280,0.00249939,0.004
 86568,-0.11665115,0.25289681,-0.10387644,0.00329333,-0.00476735,0.0030
 0346,0.00051713,0.00214616,-0.00190631,-0.00173400,0.01869965,-0.00514
 596,0.11422615,-0.26873181,0.07590444,-0.10484494,-0.04775667,0.001424
 25,-0.00785313,0.00400161,0.00114528,0.00222372,-0.00204728,0.00440174
 ,0.00275583,-0.00799216,-0.08371165,0.10768649,0.05612352,-0.00039122,
 0.00060940,0.00003107,0.00105402,-0.00091447,0.00121304,0.05305187,-0.
 13016836,0.01930923,-0.00016510,-0.00038262,-0.00005890,0.00052706,0.0
 0034854,0.00083593,-0.05407665,0.00007393,0.00186741,0.00043418,0.0011
 1556,-0.00175218,-0.00063011,-0.13190114,0.16795676,-0.01146723,0.0000
 8940,-0.00013813,0.00059858,0.00011475,-0.00024346,0.00003203,0.130507
 50,-0.16769040,-0.00013042,0.00024630,-0.00066254,-0.00200392,0.000929
 44,-0.00000140,0.02237291,-0.01224263,-0.07603241,0.00007364,-0.000204
 42,-0.00024122,0.00101816,0.00023876,-0.00232900,-0.02133037,0.0110325
 5,0.07926657,-0.03790456,-0.00504320,-0.10797426,-0.02919849,0.0170331
 6,0.06557947,0.00167208,-0.00082217,0.00146219,0.00519449,-0.00003987,
 0.00617742,0.00146855,-0.00874280,-0.01774436,0.00680249,-0.00365307,-
 0.03726177,-0.01783316,0.01068907,0.01533734,0.00378983,-0.00231304,-0
 .00069557,0.00108463,0.00778879,-0.00699938,-0.20178447,0.00198573,0.0
 0000528,-0.00835713,-0.00921660,0.02133112,0.01214369,0.53221759,-0.71
 892274,-0.00795406,0.00215372,0.00414772,0.01673774,-0.02281658,0.0152
 4861,-0.11163914,0.05686052,0.25763028,0.02627009,0.04003811,0.0167100
 8,-0.00020257,-0.00039124,-0.00058468,-0.00027022,-0.00255243,0.001691
 90,-0.02451468,0.03428909,0.03532941,0.01495845,0.00024600,-0.00019476
 ,0.00033253,0.00022191,0.00010652,-0.00151051,-0.03722736,-0.04025801,
 0.01359667,0.01447858,-0.01337922,0.00143108,0.00169248,0.00076378,-0.
 00049577,0.00039392,-0.00181507,-0.01670802,-0.01483969,0.01645257,0.0
 0552182,-0.03467513,0.01714818,0.00150759,0.00145044,-0.00424831,-0.00
 061882,0.00046117,0.00102984,-0.00091235,0.00245105,0.00049023,-0.0045
 9677,-0.03135966,0.06824609,-0.03354563,0.00144342,-0.00301286,0.00472
 025,0.00115300,-0.00003231,-0.00029047,-0.00124227,0.00483660,-0.00090
 504,0.03050314,-0.07024934,0.01533212,-0.02950283,-0.01611476,-0.00169
 956,-0.00248037,0.00794452,0.00224050,-0.00022820,-0.00260954,0.000218
 08,0.00120774,-0.00187709,-0.01580080,0.02987214,0.01389294,0.00065073
 ,0.00281544,-0.00542640,-0.00925623,-0.00006533,0.02286304,0.19779903,
 -0.52289546,0.10013371,-0.00037027,0.00001932,0.00168581,-0.00090147,-
 0.00049764,-0.00029034,-0.18792179,0.00016791,-0.00178395,0.00844260,0
 .01709215,-0.00655655,-0.02423248,-0.53906824,0.69751212,-0.03439668,0
 .00137519,0.00018024,-0.00082026,-0.00019066,0.00021182,0.00113150,0.5
 2062365,-0.68956368,0.00142126,-0.00050956,-0.00297145,-0.00009829,0.0
 1144685,-0.00203249,0.11758935,-0.06081280,-0.27260200,-0.00132735,-0.
 00014853,-0.00014497,0.00138086,0.00014874,-0.00123607,-0.11896583,0.0
 4987532,0.27898697,-0.28694351,-0.05838099,-0.57441249,-0.20227193,0.0
 4333860,0.24640565,0.06377895,-0.00692549,-0.08979757,-0.05323265,-0.0
 0407129,0.03179373,0.00990228,0.00304127,-0.03127103,-0.06738378,0.010
 36583,-0.11869833,0.05635740,-0.00779034,0.13237265,-0.00902088,0.0018
 2613,-0.00183138,0.00391011,-0.00062376,0.00892060,0.00209603,-0.00263
 379,-0.00395393,0.00114318,0.00104682,-0.00036843,-0.00317586,0.002268
 78,-0.00015485,0.01581767,-0.00208706,0.00148346,-0.00801954,0.0023812
 2,-0.00621333,-0.00196635,0.00006418,0.00602162,0.19492748,0.29040105,
 0.15753598,-0.00887418,-0.00445094,0.00042004,0.00092037,0.00170904,-0
 .00344149,-0.17516263,0.25259985,0.20665024,0.05993852,0.00209954,0.00
 124219,-0.00554831,-0.00057373,0.00040841,0.00190533,-0.26979246,-0.19
 658264,0.13839668,0.05870042,-0.07115130,0.02284626,0.00807217,-0.0030
 2891,-0.00350021,-0.00104954,-0.00003521,-0.14767443,-0.06304100,0.066
 30224,0.03908014,-0.22761334,0.13374384,-0.00799250,0.00654186,0.00449
 644,0.00135464,0.00139165,-0.00500689,-0.01181775,0.01596978,-0.009524
 68,-0.02110574,-0.18919510,0.34035520,-0.11294254,0.00206794,-0.001673
 07,0.00305486,-0.00052127,0.00115278,-0.00106907,-0.01712033,-0.011912
 72,-0.00275538,0.20467322,-0.32805855,0.11789544,-0.10961858,-0.058222
 22,0.01862919,-0.01213621,-0.00394996,-0.00237587,0.00153492,0.0008794
 5,-0.00785533,0.00686623,0.00759975,-0.12523534,0.11312780,0.05400938,
 -0.00182219,0.00069263,0.00262106,0.00241027,-0.00043715,-0.00281071,0
 .00073971,-0.00378251,0.00261661,0.00000672,-0.00030297,-0.00054363,0.
 00048121,0.00009555,-0.00105808,-0.00181572,0.00168131,-0.00043276,-0.
 00138004,-0.00133009,0.00027660,0.00309381,-0.00237614,0.00291602,-0.0
 0119461,-0.00074636,0.00019452,0.00007332,-0.00096317,0.00013635,0.000
 22584,0.00373445,-0.00309074,-0.00245408,-0.00069921,0.00018273,-0.000
 01573,-0.00042914,-0.00048212,0.00075320,0.00148313,-0.00213602,0.0010
 1523,-0.00012078,0.00031343,0.00152663,0.00058432,-0.00031641,-0.00082
 525,-0.00081832,0.00243840,-0.08156087,-0.06113904,-0.23989966,-0.0470
 6403,-0.07293810,-0.32383777,0.01544343,0.01105285,0.01785573,-0.03354
 543,0.00101933,0.01436920,0.05838398,-0.00330300,0.01467382,0.04389327
 ,0.05854497,0.25783989,0.00029307,-0.04003960,-0.20512599,0.00056718,0
 .00390624,-0.02297817,0.02952887,0.01435992,-0.02039360,-0.03915443,0.
 01133490,0.04064355,-0.00441603,-0.00364124,-0.02134818,-0.01388598,-0
 .00617750,-0.04629594,-0.00314051,-0.01278093,0.04075980,-0.03485325,-
 0.01489560,-0.01889989,0.04535156,0.02814012,-0.02664906,0.05080965,0.
 07331700,0.03698314,0.00196928,0.00175993,-0.02942596,-0.00350188,-0.0
 0621555,0.00331533,-0.05106594,0.07406259,0.09938287,0.03979609,-0.001
 34584,-0.00501380,-0.02275727,-0.00501969,-0.00001988,0.00917411,-0.06
 814020,-0.09644820,0.00078061,-0.01430890,0.01076430,0.01516727,0.0283
 9512,-0.01837419,-0.00176429,0.01342423,-0.00059849,-0.00734799,-0.025
 25487,0.00655192,0.01919902,-0.02460923,0.01806697,-0.00430479,-0.0051
 4033,-0.01311521,0.00056014,0.00533726,-0.00188341,0.00034034,0.000648
 89,-0.00454540,-0.01592724,-0.02464297,0.08447730,-0.02325932,-0.00194
 666,-0.00286815,0.01823653,0.00288568,-0.00013455,-0.00767054,-0.00001
 833,0.00123417,-0.00260493,0.02322201,-0.08208952,0.00356341,0.0294420
 9,0.01505686,0.00539266,-0.03326243,-0.01857511,-0.00482759,-0.0088165
 0,0.00728933,-0.00309921,-0.00111750,-0.00151475,-0.00046509,0.0147170
 6,0.00081045,-0.00445843,-0.00252782,-0.00286364,-0.00909135,-0.008695
 85,0.01874843,0.01200010,-0.00063786,-0.00878972,0.00144856,-0.0002057
 4,-0.00229019,0.00013253,0.00050027,-0.00056417,-0.00003141,-0.0006348
 1,0.00102674,0.00243337,-0.00081611,0.00018710,-0.00009865,-0.00995465
 ,0.02715498,-0.00196715,-0.00070284,0.00086483,0.00034935,0.00054141,-
 0.00061925,-0.00096272,0.01156700,-0.02861441,0.00196725,0.01204086,-0
 .00058309,-0.00385547,0.00141853,0.00313530,0.00461209,-0.01444584,-0.
 00190172,-0.00042530,0.00015944,0.00317121,0.00194214,0.00058120,-0.00
 306677,-0.00424071,0.00024580,-0.00075494,-0.33258498,-0.02166185,-0.5
 2880405,-0.24470406,0.04266030,0.13688580,0.03268846,0.00364692,0.0366
 4985,-0.03321187,0.00600770,0.06744443,0.01443938,-0.00072955,-0.05011
 738,0.03775016,0.00630135,-0.26316205,-0.06698886,-0.01021739,0.358489
 32,0.00240685,-0.00058698,-0.01128477,-0.00876839,-0.00130699,0.041362
 59,0.01142769,-0.00113435,-0.00242995,0.00043583,0.00040057,-0.0018491
 1,0.00269881,0.00206748,0.00294971,-0.00075480,0.00243341,0.02421823,0
 .01750046,-0.00056300,-0.07479119,-0.02167502,-0.00173208,0.03643886,0
 .20949261,0.24960598,0.12157477,0.00540369,0.00218855,-0.00574074,-0.0
 0190913,-0.00012984,0.00197939,-0.19551359,0.17273981,0.16162052,0.102
 00085,0.00134924,-0.00770402,-0.00940469,-0.00229365,0.00040182,0.0047
 5431,-0.21156797,-0.14492488,0.12605795,0.14960661,0.04794686,0.006929
 67,0.00237560,-0.01332939,-0.00575575,-0.00145179,0.00744762,-0.105248
 33,-0.12868488,-0.02988035,0.08779797,-0.23110513,0.09754393,0.0040727
 6,-0.00706490,-0.00635758,-0.00247670,0.00032662,0.00206947,-0.0172939
 0,0.03992047,-0.02170941,-0.07181960,-0.15611379,0.30184366,-0.1588743
 6,-0.00430305,-0.00770837,0.01150257,0.00242471,0.00136916,-0.00581399
 ,-0.04005045,-0.00973334,-0.02268870,0.19790814,-0.28542072,0.08250150
 ,-0.20110572,0.05649522,0.00768311,-0.00614378,-0.01319898,-0.00573670
 ,-0.00032915,0.00776330,-0.01229648,0.03133097,-0.01191638,-0.07166383
 ,0.17553614,-0.03897950,0.00019908,0.00010106,0.00022029,-0.00018466,0
 .00090519,-0.00002556,-0.00068033,-0.00153048,0.00088050,-0.00017968,-
 0.00014790,-0.00027413,-0.00028053,0.00013445,-0.00048760,0.00112612,0
 .00016248,0.00032538,-0.00066200,-0.00036413,-0.00006556,-0.00088066,-
 0.00030458,-0.00044164,0.00092135,-0.00004627,0.00033989,0.00084315,0.
 00001480,-0.00035039,0.00071155,0.00053768,0.00019231,-0.00085075,0.00
 010404,-0.00238406,-0.00177423,0.00010919,0.00599229,0.00308966,0.0003
 7837,-0.00107685,-0.00026861,0.00000345,-0.00026836,0.00011743,0.00033
 835,-0.00016367,-0.00031350,-0.00093339,-0.00209936,-0.17061138,-0.002
 10634,-0.22247234,-0.38411990,0.09648492,0.97130325,0.15542126,0.00657
 608,0.49851069,-0.20187441,0.00987334,0.16955550,-0.09772521,0.0210714
 9,-0.15800791,0.34788259,-0.08886866,-1.16525680,-0.57329175,0.0915622
 8,1.56006664,-0.00455355,-0.00348374,-0.11806941,0.01391976,-0.0175722
 6,0.20526215,-0.00915280,-0.01239450,-0.00275857,0.00061742,-0.0279059
 3,0.01591276,0.01808348,0.03288621,-0.01022268,0.03968438,-0.00727396,
 0.14736558,0.07701965,-0.01176335,-0.27299731,-0.09091463,-0.00042719,
 0.03499287,0.01428061,0.01085377,0.00498075,0.00858208,0.00358035,0.00
 412465,-0.00046238,0.00016899,-0.00613544,-0.01850165,0.02489989,0.018
 88636,0.00998002,-0.00133639,-0.01404607,-0.03823219,-0.01232085,0.001
 31524,0.01404578,-0.01185902,-0.00723674,0.00061974,-0.00005834,0.0217
 2091,0.01120079,-0.01514163,-0.05250108,-0.00985995,-0.00647647,0.0257
 7739,-0.00532353,0.01591223,0.00705589,0.00550767,-0.01173283,0.000163
 26,0.01173248,-0.01059507,0.01460821,0.00082514,0.00531463,-0.01334515
 ,-0.00391723,0.00229471,0.00400453,-0.01463948,-0.02470218,0.03776656,
 -0.01288861,-0.00177599,-0.01424532,0.03562267,0.01113014,0.00033902,-
 0.01017078,-0.00170444,-0.00021512,0.00242950,0.01596687,-0.02294877,0
 .00074409,-0.00079293,0.02565356,0.01453361,0.02054289,-0.06491805,-0.
 00905862,-0.00606446,0.03041200,0.00238507,-0.00141818,-0.00047838,-0.
 00809286,-0.01591916,0.01197442,-0.00004462,-0.00010694,-0.00146540,0.
 01221883,-0.00635786,0.00141415,-0.00057617,0.00193062,-0.00630881,0.0
 0001857,-0.00167833,-0.00064158,0.00049143,0.00108560,-0.00051129,-0.0
 1210804,0.00442979,-0.00097752,0.00353146,0.00337074,0.00083104,-0.018
 16759,-0.01063950,-0.00458580,0.01558951,-0.00103965,0.00129632,0.0033
 3471,-0.00124831,-0.00069637,0.00365185,0.00512692,0.00413233,-0.00481
 090,0.00050897,-0.00078652,-0.02797298,0.01252502,-0.00439341,0.022640
 45,-0.00573277,0.03444943,-0.00003150,-0.00028765,-0.00157474,0.002662
 02,0.00092638,-0.00264356,0.00751292,-0.00793994,-0.02505120,0.5201363
 7,0.14330124,2.78396121,0.84131255,-0.32229612,-0.44873506,-0.00444009
 ,0.00078669,0.00733689,-0.00567184,0.00113204,-0.00485195,-0.00240744,
 -0.00096097,-0.01087747,0.00741018,-0.00125065,0.00324601,-0.00487648,
 0.00119602,0.00176890,0.00234504,-0.00050522,0.00206787,0.00161791,0.0
 0007491,-0.00406879,-0.00269510,-0.00002114,0.00032421,0.00054523,0.00
 036885,0.00077933,-0.00046754,-0.00085309,0.00070082,-0.00338814,0.000
 74703,-0.00372096,-0.00290628,0.00022041,0.00880070,0.00484689,-0.0003
 6256,-0.00821089,-0.58382353,-1.20171992,-0.46216809,0.00473060,0.0026
 7064,0.00200072,-0.00039276,0.00019319,0.00038724,0.55633845,-1.145256
 64,-0.94399425,-0.50926356,0.00062205,0.00630631,0.00899187,0.00089440
 ,-0.00077136,-0.00039984,1.17804124,0.94766625,-0.46421998,-0.52833851
 ,0.22982216,0.00000967,-0.00216365,-0.00637981,-0.00144360,-0.00022768
 ,0.00162676,0.46006409,0.51703167,-0.24758107,0.06549549,1.05833658,-0
 .38859423,0.00369366,-0.00269576,-0.00018107,-0.00059066,-0.00053933,0
 .00063577,0.02326128,-0.03436973,0.00568353,-0.09172389,1.00130897,-1.
 83553712,0.83359911,-0.00061656,0.00848190,-0.00895845,-0.00072555,0.0
 0002242,-0.00037959,0.02067626,-0.00937748,0.01381002,-1.02104998,1.83
 691429,-0.38079222,0.85105929,0.21942997,0.00028371,0.00302295,-0.0077
 0654,-0.00153350,0.00037330,0.00165555,-0.00039970,-0.01579987,0.02250
 352,0.38268353,-0.83859428,-0.23649736,0.00028670,-0.00019937,0.000045
 00,0.00006977,-0.00022086,-0.00028456,-0.00028445,0.00085152,0.0004245
 3,-0.00011405,0.00006868,-0.00009371,-0.00013588,0.00040685,-0.0002418
 3,0.00017791,-0.00046448,0.00009789,-0.00017722,-0.00020007,0.00016189
 ,0.00048875,0.00111455,-0.00105544,0.00017455,0.00013860,0.00017054,-0
 .00011186,0.00031821,-0.00050401,-0.00006139,-0.00090682,0.00112913,-0
 .00032239,0.00007895,-0.00004213,0.00015248,0.00013171,0.00027075,0.00
 013114,0.00013925,-0.00015119,0.00011575,-0.00056027,0.00000843,-0.000
 22754,0.00052318,0.00061486,0.00015057,-0.00031282,-0.00070073,0.75478
 965,0.54790975,2.60272444,1.02217897,-0.08660959,-0.49714826,-0.013885
 29,-0.00046661,0.00189121,0.00075313,-0.00093560,-0.01408408,0.0004084
 0,-0.00066284,-0.00381205,-0.00916170,-0.00043326,0.02336915,0.0041162
 4,-0.00012746,-0.02009601,0.00057854,0.00010760,0.00147089,0.00107937,
 0.00014967,-0.00340011,-0.00165504,0.00084897,0.00130584,0.00046666,0.
 00025623,0.00176035,-0.00144744,-0.00098605,-0.00062848,-0.00198082,0.
 00047173,-0.00306479,-0.00127926,-0.00056671,0.01099536,0.00351673,0.0
 0057172,-0.00895092,-0.77858728,-1.50459916,-0.64648468,0.00698388,0.0
 0500150,0.00576194,-0.00011171,-0.00086537,-0.00053863,0.77491168,-1.4
 9467816,-1.06679089,-0.69744103,0.00148284,0.00789036,0.00531750,-0.00
 021985,-0.00085065,-0.00019105,1.49368904,1.05371312,-0.63744669,-0.69
 122135,0.28953554,-0.00318770,-0.00196126,-0.00722391,-0.00074977,-0.0
 0040594,0.00074720,0.64163565,0.69245908,-0.27652322,0.03672802,0.9574
 0526,-0.37944879,0.00495119,-0.00336225,0.00298566,0.00026248,-0.00003
 600,0.00033227,-0.00325934,-0.00052276,-0.00021859,-0.03819551,0.94760
 888,-1.52332271,0.78345109,-0.00050504,0.00816756,-0.00421252,0.000060
 64,-0.00093781,-0.00009956,0.00643824,0.00609796,0.00130670,-0.9538442
 2,1.51022597,-0.37380412,0.77745601,0.18705072,-0.00178086,0.00183268,
 -0.00630477,-0.00064078,0.00106817,-0.00005040,-0.00014654,0.00014269,
 -0.00651601,0.37661059,-0.78033849,-0.17509019,0.00037634,-0.00035684,
 0.00039241,0.00011772,-0.00019049,-0.00030203,-0.00015367,0.00078222,-
 0.00005029,0.00006277,0.00024889,-0.00003290,-0.00048684,0.00024151,-0
 .00023830,0.00008369,-0.00075384,0.00016739,-0.00027553,-0.00010458,0.
 00007786,0.00090318,0.00088800,-0.00064928,-0.00018613,0.00033575,-0.0
 0005990,-0.00017723,0.00035997,-0.00023098,-0.00016107,-0.00072530,0.0
 0069490,0.00021435,0.00033646,0.00025763,0.00024038,0.00041436,-0.0007
 3982,-0.00019695,-0.00025317,0.00032352,-0.00022774,-0.00028720,-0.000
 01959,-0.00026114,-0.00010722,0.00091065,0.00023111,-0.00010323,-0.000
 73239,0.00091494,-0.00032690,-0.00159759,0.00059022,0.00044560,-0.0000
 8288,0.00146319,0.00037571,-0.00309934,-0.00210849,0.00033700,0.002092
 71,-0.00064245,0.00133456,-0.00223171,-0.00157248,-0.00058708,0.000371
 59,0.00245833,-0.00051847,0.00836884,0.00090817,0.00005078,0.00248954,
 0.00082988,-0.00149031,-0.00644332,0.96085446,-0.00188995,0.00357307,-
 0.00153672,0.00189172,-0.00962524,0.00750477,-3.65933296,4.24698094,0.
 00051706,-0.00069002,0.00003595,-0.00720375,0.00581048,-0.00478251,0.2
 7427418,-0.43912618,-1.35344082,-0.00066499,0.00054865,0.00050411,0.00
 039512,-0.00083281,-0.00094271,-0.00019578,-0.00030820,0.00018674,-0.0
 0002773,-0.00087958,-0.00060582,-0.00014258,0.00034648,0.00033340,-0.0
 0046478,0.00009465,-0.00035127,0.00021954,0.00062484,0.00006735,-0.000
 22136,-0.00133234,-0.00111737,-0.00004455,0.00085098,0.00070902,0.0003
 5759,0.00025223,0.00036610,0.00054499,0.00034717,-0.00077897,-0.001127
 35,-0.00000985,0.00072565,0.00078072,0.00072247,-0.00115546,-0.0007332
 1,-0.00044538,0.00167550,0.00033968,0.00022744,-0.00021090,0.00032701,
 0.00124714,-0.00136517,0.00032400,-0.00044279,0.00048195,0.00052050,-0
 .00038458,0.00010176,0.00005803,-0.00039866,0.00030271,0.00014662,-0.0
 0086003,0.00117405,-0.00013205,0.00203044,-0.00117398,-0.00054252,-0.0
 0063295,0.00086810,0.00010935,-0.00085170,-0.00020347,-0.00017930,-0.0
 0024799,0.00053834,0.00078331,-0.00057665,-0.00164498,-0.00149398,-0.0
 0063839,-0.00121018,-0.00136042,-0.00007091,0.00765564,-0.96166353,3.6
 6008477,-0.26944974,0.00015371,-0.00041383,-0.00042576,0.00041316,0.00
 083892,-0.00003878,0.96395106,0.00151228,-0.00209721,0.00155215,-0.003
 50567,0.00894889,-0.00645494,3.66106242,-4.24067926,0.43372815,0.00036
 618,0.00025363,-0.00026467,0.00036534,-0.00069531,0.00027886,-3.659800
 55,4.23426925,0.00081861,0.00013340,0.00196668,0.00843184,-0.00486759,
 -0.00553504,-0.27078734,0.43375759,1.35802473,-0.00011382,0.00028865,0
 .00028287,-0.00181810,-0.00047250,0.00161599,0.26346882,-0.42883954,-1
 .35635524\\@
 The archive entry for this job was punched.


 If fifty million people say a stupid thing,
 it is still a stupid thing.
                   -- Anatole France
 Job cpu time:       0 days 13 hours 44 minutes 22.0 seconds.
 Elapsed time:       0 days  0 hours 32 minutes 49.7 seconds.
 File lengths (MBytes):  RWF=   1607 Int=      0 D2E=      0 Chk=     41 Scr=      1
 Normal termination of Gaussian 16 at Sat Apr 19 07:34:51 2025.
