ts                                                                      
Freq      UB2PLYPD3-FC                                                CC-pVTZ             
Number of atoms                            I                6
Info1-9                                    I   N=           9
          30          29        1002           0           1         100
           6           2        6001
Full Title                                 C   N=           1
ts          
Route                                      C   N=           7
#b2plypd3/cc-pvtz opt=(ts,calcfc,noeigentest,internal) freq=
anh int=superfine       
Charge                                     I                0
Multiplicity                               I                2
Number of electrons                        I               19
Number of alpha electrons                  I               10
Number of beta electrons                   I                9
Number of basis functions                  I              116
Number of independent functions            I              116
Number of point charges in /Mol/           I                0
Number of translation vectors              I                0
Atomic numbers                             I   N=           6
           7           1           8           1           1           1
Nuclear charges                            R   N=           6
  7.00000000E+00  1.00000000E+00  8.00000000E+00  1.00000000E+00  1.00000000E+00
  1.00000000E+00
Current cartesian coordinates              R   N=          18
 -2.16925620E+00 -7.92970906E-02 -1.86820951E-01 -1.51896871E-01 -3.14522164E-01
 -7.67876264E-01  2.22118461E+00 -1.77332748E-01 -1.20775358E-02 -2.39694638E+00
 -1.04050596E+00  1.45817453E+00 -2.49297312E+00  1.77249563E+00  2.01664268E-01
  2.45713289E+00  1.55627410E+00  5.12404404E-01
Number of symbols in /Mol/                 I                0
Int Atom Types                             I   N=           6
           0           0           0           0           0           0
Force Field                                I                0
Atom Types                                 C   N=           6
                                                            
            
MM charges                                 R   N=           6
  0.00000000E+00  0.00000000E+00  0.00000000E+00  0.00000000E+00  0.00000000E+00
  0.00000000E+00
Integer atomic weights                     I   N=           6
          14           1          16           1           1           1
Real atomic weights                        R   N=           6
  1.40030740E+01  1.00782504E+00  1.59949146E+01  1.00782504E+00  1.00782504E+00
  1.00782504E+00
Atom fragment info                         I   N=           6
           0           0           0           0           0           0
Atom residue num                           I   N=           6
           0           0           0           0           0           0
Nuclear spins                              I   N=           6
           2           1           0           1           1           1
Nuclear ZEff                               R   N=           6
 -4.55000000E+00 -1.00000000E+00 -5.60000000E+00 -1.00000000E+00 -1.00000000E+00
 -1.00000000E+00
Nuclear ZNuc                               R   N=           6
  7.00000000E+00  1.00000000E+00  8.00000000E+00  1.00000000E+00  1.00000000E+00
  1.00000000E+00
Nuclear QMom                               R   N=           6
  2.04400000E+00  0.00000000E+00  0.00000000E+00  0.00000000E+00  0.00000000E+00
  0.00000000E+00
Nuclear GFac                               R   N=           6
  4.03761000E-01  2.79284600E+00  0.00000000E+00  2.79284600E+00  2.79284600E+00
  2.79284600E+00
MicOpt                                     I   N=           6
          -1          -1          -1          -1          -1          -1
Number of residues                         I                0
Number of secondary structures             I                0
SymInf integers                            I   N=          26
           1           1           1           1           1           0
           0           0           0           0           0           0
           0           0           0           0           0           0
           0           0           0           0           0           0
           0           0
RotTr to input orientation                 R   N=          12
 -2.94959420E-01  3.24420856E-02  9.54958874E-01 -2.54852794E-01  9.60547515E-01
 -1.11348666E-01 -9.20895756E-01 -2.76217275E-01 -2.75054582E-01 -8.32094258E-01
  9.49406447E-02  2.01133488E+00
Number of contracted shells                I               44
Number of primitive shells                 I               78
Pure/Cartesian d shells                    I                0
Pure/Cartesian f shells                    I                0
Highest angular momentum                   I                3
Largest degree of contraction              I                7
Shell types                                I   N=          44
           0           0           0           0           1           1
           1          -2          -2          -3           0           0
           0           1           1          -2           0           0
           0           0           1           1           1          -2
          -2          -3           0           0           0           1
           1          -2           0           0           0           1
           1          -2           0           0           0           1
           1          -2
Number of primitives per shell             I   N=          44
           7           6           1           1           3           1
           1           1           1           1           3           1
           1           1           1           1           7           6
           1           1           3           1           1           1
           1           1           3           1           1           1
           1           1           3           1           1           1
           1           1           3           1           1           1
           1           1
Shell to atom map                          I   N=          44
           1           1           1           1           1           1
           1           1           1           1           2           2
           2           2           2           2           3           3
           3           3           3           3           3           3
           3           3           4           4           4           4
           4           4           5           5           5           5
           5           5           6           6           6           6
           6           6
Primitive exponents                        R   N=          78
  1.14200000E+04  1.71200000E+03  3.89300000E+02  1.10000000E+02  3.55700000E+01
  1.25400000E+01  4.64400000E+00  3.89300000E+02  1.10000000E+02  3.55700000E+01
  1.25400000E+01  4.64400000E+00  5.11800000E-01  1.29300000E+00  1.78700000E-01
  2.66300000E+01  5.94800000E+00  1.74200000E+00  5.55000000E-01  1.72500000E-01
  1.65400000E+00  4.69000000E-01  1.09300000E+00  3.38700000E+01  5.09500000E+00
  1.15900000E+00  3.25800000E-01  1.02700000E-01  1.40700000E+00  3.88000000E-01
  1.05700000E+00  1.53300000E+04  2.29900000E+03  5.22400000E+02  1.47300000E+02
  4.75500000E+01  1.67600000E+01  6.20700000E+00  5.22400000E+02  1.47300000E+02
  4.75500000E+01  1.67600000E+01  6.20700000E+00  6.88200000E-01  1.75200000E+00
  2.38400000E-01  3.44600000E+01  7.74900000E+00  2.28000000E+00  7.15600000E-01
  2.14000000E-01  2.31400000E+00  6.45000000E-01  1.42800000E+00  3.38700000E+01
  5.09500000E+00  1.15900000E+00  3.25800000E-01  1.02700000E-01  1.40700000E+00
  3.88000000E-01  1.05700000E+00  3.38700000E+01  5.09500000E+00  1.15900000E+00
  3.25800000E-01  1.02700000E-01  1.40700000E+00  3.88000000E-01  1.05700000E+00
  3.38700000E+01  5.09500000E+00  1.15900000E+00  3.25800000E-01  1.02700000E-01
  1.40700000E+00  3.88000000E-01  1.05700000E+00
Contraction coefficients                   R   N=          78
  5.34563860E-04  4.13435660E-03  2.12335358E-02  8.25006224E-02  2.38138871E-01
  4.42551547E-01  3.53757422E-01 -4.89867350E-05 -1.19527323E-03 -1.03490714E-02
 -6.48680190E-02 -1.71552477E-01  1.07289568E+00  1.00000000E+00  1.00000000E+00
  3.98072123E-02  2.49002660E-01  8.10479727E-01  1.00000000E+00  1.00000000E+00
  1.00000000E+00  1.00000000E+00  1.00000000E+00  2.54948632E-02  1.90362766E-01
  8.52162022E-01  1.00000000E+00  1.00000000E+00  1.00000000E+00  1.00000000E+00
  1.00000000E+00  5.19808943E-04  4.02025621E-03  2.07128267E-02  8.10105536E-02
  2.35962985E-01  4.42653446E-01  3.57064423E-01 -4.42115008E-05 -1.22591041E-03
 -1.05517725E-02 -6.74452633E-02 -1.71198607E-01  1.07329856E+00  1.00000000E+00
  1.00000000E+00  4.11634896E-02  2.57762836E-01  8.02419274E-01  1.00000000E+00
  1.00000000E+00  1.00000000E+00  1.00000000E+00  1.00000000E+00  2.54948632E-02
  1.90362766E-01  8.52162022E-01  1.00000000E+00  1.00000000E+00  1.00000000E+00
  1.00000000E+00  1.00000000E+00  2.54948632E-02  1.90362766E-01  8.52162022E-01
  1.00000000E+00  1.00000000E+00  1.00000000E+00  1.00000000E+00  1.00000000E+00
  2.54948632E-02  1.90362766E-01  8.52162022E-01  1.00000000E+00  1.00000000E+00
  1.00000000E+00  1.00000000E+00  1.00000000E+00
Coordinates of each shell                  R   N=         132
 -2.16925620E+00 -7.92970906E-02 -1.86820951E-01 -2.16925620E+00 -7.92970906E-02
 -1.86820951E-01 -2.16925620E+00 -7.92970906E-02 -1.86820951E-01 -2.16925620E+00
 -7.92970906E-02 -1.86820951E-01 -2.16925620E+00 -7.92970906E-02 -1.86820951E-01
 -2.16925620E+00 -7.92970906E-02 -1.86820951E-01 -2.16925620E+00 -7.92970906E-02
 -1.86820951E-01 -2.16925620E+00 -7.92970906E-02 -1.86820951E-01 -2.16925620E+00
 -7.92970906E-02 -1.86820951E-01 -2.16925620E+00 -7.92970906E-02 -1.86820951E-01
 -1.51896871E-01 -3.14522164E-01 -7.67876264E-01 -1.51896871E-01 -3.14522164E-01
 -7.67876264E-01 -1.51896871E-01 -3.14522164E-01 -7.67876264E-01 -1.51896871E-01
 -3.14522164E-01 -7.67876264E-01 -1.51896871E-01 -3.14522164E-01 -7.67876264E-01
 -1.51896871E-01 -3.14522164E-01 -7.67876264E-01  2.22118461E+00 -1.77332748E-01
 -1.20775358E-02  2.22118461E+00 -1.77332748E-01 -1.20775358E-02  2.22118461E+00
 -1.77332748E-01 -1.20775358E-02  2.22118461E+00 -1.77332748E-01 -1.20775358E-02
  2.22118461E+00 -1.77332748E-01 -1.20775358E-02  2.22118461E+00 -1.77332748E-01
 -1.20775358E-02  2.22118461E+00 -1.77332748E-01 -1.20775358E-02  2.22118461E+00
 -1.77332748E-01 -1.20775358E-02  2.22118461E+00 -1.77332748E-01 -1.20775358E-02
  2.22118461E+00 -1.77332748E-01 -1.20775358E-02 -2.39694638E+00 -1.04050596E+00
  1.45817453E+00 -2.39694638E+00 -1.04050596E+00  1.45817453E+00 -2.39694638E+00
 -1.04050596E+00  1.45817453E+00 -2.39694638E+00 -1.04050596E+00  1.45817453E+00
 -2.39694638E+00 -1.04050596E+00  1.45817453E+00 -2.39694638E+00 -1.04050596E+00
  1.45817453E+00 -2.49297312E+00  1.77249563E+00  2.01664268E-01 -2.49297312E+00
  1.77249563E+00  2.01664268E-01 -2.49297312E+00  1.77249563E+00  2.01664268E-01
 -2.49297312E+00  1.77249563E+00  2.01664268E-01 -2.49297312E+00  1.77249563E+00
  2.01664268E-01 -2.49297312E+00  1.77249563E+00  2.01664268E-01  2.45713289E+00
  1.55627410E+00  5.12404404E-01  2.45713289E+00  1.55627410E+00  5.12404404E-01
  2.45713289E+00  1.55627410E+00  5.12404404E-01  2.45713289E+00  1.55627410E+00
  5.12404404E-01  2.45713289E+00  1.55627410E+00  5.12404404E-01  2.45713289E+00
  1.55627410E+00  5.12404404E-01
Num ILSW                                   I              100
ILSW                                       I   N=         100
           1           0           0           1           2           0
           0           0           0           0         419          -1
           7           0           0           0           2           0
           0           0           1           0           1           0
           1           0           0           0           0           0
           0           0      100000           0          -1           0
           0           0           0           0           0           0
           0           0           0           1           1           0
           0 -2000000000           1           0           0           0
           0           0         141          52           0           0
           0           0          60           0           0           0
           0           0           0           0           4           1
           0           0           0           0           0           0
           0           0           0           0           0           0
           0           0           0           0           0           0
           0           0           0           0           0           0
           0           0           0           0
Num RLSW                                   I               52
RLSW                                       R   N=          52
  4.70000000E-01  4.70000000E-01  7.30000000E-01  7.30000000E-01  5.30000000E-01
  0.00000000E+00  0.00000000E+00  1.00000000E+00  0.00000000E+00  0.00000000E+00
  0.00000000E+00  0.00000000E+00  1.00000000E+00  0.00000000E+00  0.00000000E+00
  0.00000000E+00  0.00000000E+00  1.00000000E+00  0.00000000E+00  0.00000000E+00
  0.00000000E+00  0.00000000E+00  1.00000000E+00  0.00000000E+00  0.00000000E+00
  0.00000000E+00  0.00000000E+00  1.00000000E+00  0.00000000E+00  0.00000000E+00
  0.00000000E+00  0.00000000E+00  1.00000000E+00  0.00000000E+00  0.00000000E+00
  0.00000000E+00  0.00000000E+00  0.00000000E+00  2.70000000E-01  2.70000000E-01
  0.00000000E+00  1.00000000E+00  0.00000000E+00  0.00000000E+00  0.00000000E+00
  0.00000000E+00  0.00000000E+00  0.00000000E+00  0.00000000E+00  0.00000000E+00
  0.00000000E+00  0.00000000E+00
MxBond                                     I                3
NBond                                      I   N=           6
           3           1           1           1           1           1
IBond                                      I   N=          18
           2           4           5           1           0           0
           6           0           0           1           0           0
           1           0           0           3           0           0
RBond                                      R   N=          18
  1.00000000E+00  1.00000000E+00  1.00000000E+00  1.00000000E+00  0.00000000E+00
  0.00000000E+00  1.00000000E+00  0.00000000E+00  0.00000000E+00  1.00000000E+00
  0.00000000E+00  0.00000000E+00  1.00000000E+00  0.00000000E+00  0.00000000E+00
  1.00000000E+00  0.00000000E+00  0.00000000E+00
Virial Ratio                               R      2.003559202784682E+00
SCF Energy                                 R     -1.320933279302430E+02
MP2 Energy                                 R     -1.322478701313866E+02
Total Energy                               R     -1.322478701313866E+02
PUHF Energy                                R     -1.321001722420000E+02
PMP2-0 Energy                              R     -1.322483732509533E+02
Post-SCF wavefunction norm                 R      1.546472885312877E+00
S**2                                       R      7.681462672908363E-01
S**2 after annihilation                    R      7.501058895648317E-01
S**2 corrected to first order              R      7.416422995487735E-01
RMS Force                                  R      2.952912589950745E-06
RMS Density                                R      1.682647195785105E-10
NImag                                      I                1
Job Status                                 I                1
Nuclear derivative order                   I                3
Thermal Energy                             R     -1.322013446099372E+02
Thermal Enthalpy                           R     -1.322004004251235E+02
Thermal Free Energy                        R     -1.322300321745305E+02
External E-field                           R   N=          35
  0.00000000E+00  0.00000000E+00  0.00000000E+00  0.00000000E+00  0.00000000E+00
  0.00000000E+00  0.00000000E+00  0.00000000E+00  0.00000000E+00  0.00000000E+00
  0.00000000E+00  0.00000000E+00  0.00000000E+00  0.00000000E+00  0.00000000E+00
  0.00000000E+00  0.00000000E+00  0.00000000E+00  0.00000000E+00  0.00000000E+00
  0.00000000E+00  0.00000000E+00  0.00000000E+00  0.00000000E+00  0.00000000E+00
  0.00000000E+00  0.00000000E+00  0.00000000E+00  0.00000000E+00  0.00000000E+00
  0.00000000E+00  0.00000000E+00  0.00000000E+00  0.00000000E+00  0.00000000E+00
IOpCl                                      I                1
IROHF                                      I                0
Alpha Orbital Energies                     R   N=         116
 -1.97587453E+01 -1.48518333E+01 -1.15639089E+00 -9.94534666E-01 -6.12733330E-01
 -5.57725504E-01 -5.24014379E-01 -4.37400534E-01 -4.05302506E-01 -3.61407541E-01
  6.02563017E-02  1.18133562E-01  1.46105257E-01  2.24543193E-01  3.69436352E-01
  3.86533201E-01  4.70365051E-01  4.85649424E-01  5.03714683E-01  5.74577102E-01
  5.81125703E-01  5.85647285E-01  6.24800754E-01  6.50473979E-01  6.66388860E-01
  7.37639180E-01  7.66023408E-01  8.28906242E-01  8.78176719E-01  1.01066961E+00
  1.06370041E+00  1.09442710E+00  1.13890431E+00  1.17118640E+00  1.32838809E+00
  1.38266103E+00  1.40988230E+00  1.43855928E+00  1.59397456E+00  1.59980949E+00
  1.62844168E+00  1.65859273E+00  1.80519028E+00  1.89099955E+00  1.95401103E+00
  2.02815601E+00  2.05390094E+00  2.22917716E+00  2.40561527E+00  2.50464830E+00
  2.63684120E+00  2.65389224E+00  3.14698687E+00  3.17636002E+00  3.24141683E+00
  3.26243321E+00  3.27003173E+00  3.30043944E+00  3.30152821E+00  3.36721147E+00
  3.40747900E+00  3.47459976E+00  3.53831044E+00  3.57380539E+00  3.57986641E+00
  3.60350747E+00  3.65468120E+00  3.73745384E+00  3.77357958E+00  3.82096426E+00
  3.83649885E+00  3.86627169E+00  3.87541302E+00  3.91862123E+00  4.03144676E+00
  4.04730869E+00  4.12175913E+00  4.15701939E+00  4.16825094E+00  4.20706445E+00
  4.29548943E+00  4.32629438E+00  4.35831503E+00  4.43870137E+00  4.63242014E+00
  4.67294245E+00  4.73723685E+00  4.95588497E+00  4.99561932E+00  5.04389808E+00
  5.18026056E+00  5.24189540E+00  5.35403775E+00  5.50527199E+00  5.55385927E+00
  5.60945099E+00  5.72462342E+00  5.82005336E+00  5.85319198E+00  5.98018370E+00
  6.06657571E+00  6.09492225E+00  6.17465207E+00  6.54389257E+00  6.59107675E+00
  6.68972838E+00  6.71352989E+00  6.80651199E+00  6.82671549E+00  6.89098160E+00
  6.94321951E+00  7.01838571E+00  7.35893308E+00  7.47000403E+00  1.11078542E+01
  1.32537168E+01
Beta Orbital Energies                      R   N=         116
 -1.97357936E+01 -1.48401403E+01 -1.08774758E+00 -9.55800592E-01 -5.72899135E-01
 -5.48024734E-01 -4.83581233E-01 -3.83472606E-01 -3.32411934E-01 -6.46433818E-02
  6.52966361E-02  1.25457948E-01  1.48756785E-01  2.28691030E-01  3.68798346E-01
  3.91549443E-01  4.76852161E-01  4.96692684E-01  5.22947668E-01  5.84615812E-01
  5.92838620E-01  5.95481349E-01  6.34917056E-01  6.64594050E-01  6.86787574E-01
  7.57982890E-01  7.75931975E-01  8.33476738E-01  8.88232929E-01  1.01245066E+00
  1.06650483E+00  1.10065740E+00  1.14190300E+00  1.18281562E+00  1.33288817E+00
  1.39428549E+00  1.42658754E+00  1.45714651E+00  1.60140819E+00  1.62233099E+00
  1.64711555E+00  1.66291834E+00  1.82604556E+00  1.90217439E+00  1.97653625E+00
  2.05536752E+00  2.06956652E+00  2.25660539E+00  2.40969208E+00  2.50272162E+00
  2.64034064E+00  2.66388331E+00  3.15285500E+00  3.19057917E+00  3.25992226E+00
  3.26601900E+00  3.27487851E+00  3.30264037E+00  3.30918901E+00  3.37111006E+00
  3.41431877E+00  3.47363332E+00  3.54840172E+00  3.58064555E+00  3.59367219E+00
  3.60898991E+00  3.66044976E+00  3.73756178E+00  3.77294367E+00  3.82296981E+00
  3.83735796E+00  3.87222455E+00  3.88233571E+00  3.92071913E+00  4.03664278E+00
  4.06100555E+00  4.12930139E+00  4.16452698E+00  4.17413435E+00  4.21141439E+00
  4.30488484E+00  4.33319015E+00  4.35971492E+00  4.46152141E+00  4.64213116E+00
  4.69312938E+00  4.75480013E+00  4.97616474E+00  5.01977496E+00  5.06550044E+00
  5.19984059E+00  5.25520573E+00  5.37395136E+00  5.52692991E+00  5.58671467E+00
  5.62647550E+00  5.74643481E+00  5.83643769E+00  5.86949437E+00  5.99627403E+00
  6.07858365E+00  6.09904514E+00  6.19538854E+00  6.57830804E+00  6.61145965E+00
  6.74133636E+00  6.74875751E+00  6.84049298E+00  6.85397480E+00  6.90416640E+00
  6.95626289E+00  7.04256053E+00  7.38683844E+00  7.51089383E+00  1.11294328E+01
  1.32634936E+01
Alpha MO coefficients                      R   N=       13456
  2.11755393E-05  1.08530773E-04  3.95353332E-06  5.08846806E-06  1.15969939E-06
  1.05216672E-05  1.00848061E-05  6.54157443E-06 -8.87076813E-05  8.15627371E-06
  1.00125227E-04 -2.00780099E-04 -3.23351720E-04 -1.03282501E-05  5.37079217E-05
 -9.10658347E-06  6.81261462E-06  1.72666674E-05  3.87799242E-05 -1.35214870E-04
 -3.75348269E-05 -1.04870989E-05 -3.52530312E-05  5.97341720E-08 -1.89021526E-05
  1.01669641E-05  1.44197648E-05 -1.41856129E-05 -6.46238601E-06  1.10473297E-05
 -1.25544385E-04  6.51111140E-04 -5.78409499E-04  1.19720225E-04  7.27472569E-06
  3.70777922E-05  7.72221601E-04  4.85048800E-05  2.80440014E-04 -1.05247347E-04
  1.91696543E-04  3.53092516E-05  2.55040200E-04  4.83563005E-05  9.74450635E-01
 -9.51541236E-03  4.83427473E-02  2.80380951E-03 -3.75850888E-04  1.30314133E-03
  2.45092532E-04  5.74816337E-04 -3.39639675E-04  8.34977526E-05  1.57282558E-04
  3.52183178E-04  1.31112485E-04 -3.22339445E-04 -7.53307196E-06  9.33471444E-05
  3.05603624E-04 -3.58378431E-05  3.02250990E-04 -2.05453036E-04 -1.16604783E-04
 -2.67395273E-04 -6.98916201E-05 -2.70397152E-05 -3.92674611E-05  8.64747692E-06
  6.25979225E-05 -2.52648691E-06  8.23470441E-05  1.96352510E-05 -6.59307097E-06
  1.52711241E-05  5.80141425E-05  2.74173092E-05 -1.15411885E-05 -5.69361555E-06
 -1.29251166E-05  1.37970133E-05  9.10254426E-05 -1.10442819E-05  3.35260450E-06
  1.59993780E-05 -2.26675164E-07  1.77437176E-05 -7.77157897E-06  2.14983536E-04
  2.01080289E-04  8.43593120E-06 -4.96467540E-06 -1.57738442E-05  5.29112238E-05
 -8.65552958E-05  4.95394845E-05 -7.33793966E-06  1.39802405E-05  7.47009586E-07
 -2.32222947E-06 -1.68988626E-05  4.78513965E-04 -5.42846252E-04 -3.61297265E-04
 -9.92651049E-06 -7.09177976E-05 -2.47044032E-05  5.86415798E-05  3.12806456E-04
  1.03074661E-04  1.69742944E-04 -3.04816563E-05 -2.34644413E-04  3.98194834E-04
 -1.24414272E-04  9.75721999E-01 -5.68238195E-03  4.71484841E-02  8.80651364E-03
  5.40910705E-04  6.46476630E-04  1.34769717E-03  4.34566126E-06  4.74456139E-04
  1.17245378E-03  6.18881847E-04  6.34902782E-04  1.40877673E-03 -1.67356136E-04
 -8.41217351E-05 -1.64508276E-04  2.21857999E-06 -5.58454159E-05  1.19104063E-05
 -4.18428221E-04 -2.76395721E-04 -4.59347408E-04 -2.15094629E-04  8.89270724E-05
 -7.35471705E-05 -4.32545412E-04 -3.71121398E-04  8.67960962E-05  2.81923990E-04
 -2.43976887E-04  3.34147498E-04 -1.79968135E-03 -3.72552680E-04  1.92202786E-04
 -3.45384360E-05 -7.77510423E-05  8.45011298E-04 -7.83896046E-06 -3.09084806E-05
  3.51463604E-04  2.81819772E-04 -1.27198586E-05 -6.18759018E-04  1.19219407E-04
  5.32664283E-05  2.37343654E-04 -6.17501826E-05 -2.75787460E-04  1.08248258E-05
 -2.93564779E-08  2.18626415E-05 -1.96873740E-05  7.08159134E-05 -7.08020157E-06
  2.39007923E-04 -1.42244955E-04 -1.25468309E-04 -4.25308243E-05 -3.87852975E-05
  5.97392587E-07  1.69470824E-05 -1.27847717E-05  1.19518733E-04  1.88746673E-04
  3.49149747E-05 -4.43942763E-05  6.30802382E-05  4.14420362E-05 -4.38848690E-05
  6.93663295E-06 -7.84982688E-05 -1.45468556E-05 -1.50902552E-05 -1.95415854E-05
  2.98119111E-04 -3.89655047E-03 -7.28481503E-04 -2.92505994E-05 -2.77483847E-04
  5.81487751E-04 -3.21429394E-04 -9.57918735E-04  1.54917524E-03 -7.00758281E-04
  1.66741127E-04  7.79321221E-04  1.84043883E-04 -1.08277037E-04  3.04668754E-04
 -3.84657940E-03 -7.38450417E-04 -6.02685270E-05  6.08664435E-04  1.80843017E-04
 -4.27728222E-04  1.75086952E-03  3.23935355E-04  4.63038672E-04  5.78343999E-05
 -4.28932845E-04  8.26573978E-04  2.88487114E-04  2.34284272E-05 -1.12130381E-05
  4.51474660E-06 -5.17896164E-05  2.59260345E-05 -3.78561395E-06  8.61302689E-05
  9.15929158E-05  3.83867751E-06  4.30086939E-05 -7.66913788E-06 -3.08547737E-06
  2.72303040E-05 -2.68980106E-06 -3.00551143E-02  6.95678346E-02  1.85897816E-02
  2.62079079E-02  1.39998732E-02  1.69257832E-03  3.43100825E-03  1.78529945E-02
  2.21948896E-03  4.11436863E-03  3.86379285E-03 -5.62715301E-05 -8.54738749E-04
 -8.61674671E-04 -1.25172467E-04 -1.82923970E-04  1.15572642E-03 -3.50101921E-05
 -1.30635483E-03 -6.40770037E-04  1.92014242E-04  2.22861399E-03 -3.57756010E-04
  7.48685328E-05 -4.20502482E-04 -2.49278040E-04 -2.54571438E-04 -1.16311321E-05
  5.37930147E-04 -1.62412060E-04  4.20004272E-02  3.96204408E-02  3.07453556E-03
  2.99207516E-03  8.79202065E-04  2.46754110E-03  5.58480436E-03  2.40214001E-03
  4.10337837E-03 -8.57810679E-04  1.93960113E-04  2.33079026E-04  1.98757736E-03
  4.07874222E-05 -2.06903743E-01  4.94688910E-01  1.45222300E-01  2.97034434E-01
 -1.44647565E-02  4.70399488E-02  1.05903132E-02 -2.28252488E-02  5.86418369E-02
  1.14675359E-02 -5.82967662E-03  1.17759378E-02  1.80515053E-03 -4.44323211E-03
  6.92550819E-05  2.12725435E-03  1.53510492E-03 -2.48653379E-04 -9.42296538E-03
  1.51813011E-03  3.96945166E-03  4.73575895E-03 -3.90392578E-04 -2.86877840E-04
  4.15790895E-04 -7.87954143E-04 -1.22705154E-03  5.07915067E-05 -9.21977942E-04
 -2.96948300E-04  1.12518422E-02  1.13825422E-02  2.09544719E-03  4.65952986E-04
  6.76547028E-04 -1.20794120E-03  1.26862714E-03  1.22600387E-03 -1.20903974E-03
  1.65812240E-04 -1.06723680E-04 -2.01350159E-04 -3.57048821E-05  1.44578243E-04
  1.10494606E-02  1.13248654E-02  6.69028408E-04  5.65047590E-04 -1.31812588E-03
 -2.90181695E-04  1.37908957E-03 -1.18269451E-03  9.70108352E-05 -1.25798106E-04
  2.42175565E-05  1.00815702E-04 -8.30114525E-05 -1.96129688E-04  9.56727550E-02
  8.10512503E-02  9.46837040E-03 -2.25919702E-03 -1.34528720E-02 -4.16358537E-03
 -3.25180634E-03 -1.36083784E-02 -4.46705019E-03 -1.58360921E-03  2.49241102E-04
  1.88180434E-03 -2.76231875E-03  9.76310404E-04 -1.92510909E-01  4.52585490E-01
  1.23574878E-01  2.30633958E-01  1.82981034E-02  1.93424342E-02  4.16104775E-02
  2.93861106E-02  2.37342004E-02  5.26460185E-02  5.33486386E-03  4.88450470E-03
  9.43908330E-03 -1.61754940E-03 -1.08637724E-03 -1.21250251E-03  7.78027251E-04
 -6.09276336E-04 -3.07626597E-03 -2.51953274E-03 -1.37057299E-03  2.76229780E-03
 -1.24369602E-03  5.13961804E-04 -1.09515694E-03 -1.91449293E-03 -1.78290889E-03
 -1.65760093E-05  1.66342163E-03 -1.15644847E-03  6.11306570E-02  5.66806504E-02
  7.67075804E-04 -8.33675432E-03  1.03279260E-03  2.64130490E-03 -7.19819105E-03
  2.25770700E-03  3.45397636E-03 -6.69822488E-04 -4.21348552E-04  2.59390796E-04
  1.22398977E-03 -3.51240925E-04  4.27086878E-02 -1.03826239E-01 -3.12480696E-02
 -7.07449357E-02 -2.02161420E-02 -1.45492236E-02 -6.14190224E-03 -2.40369565E-02
 -1.80955109E-02 -7.17934801E-03 -1.03151604E-02 -4.39111661E-03 -1.83188119E-03
  6.41038076E-04  2.56635634E-04 -5.88531031E-04  6.28185361E-04 -1.64594266E-04
  5.92687512E-04 -7.92036418E-05 -1.11350176E-03  2.28392465E-03 -1.00603710E-03
  2.39975261E-04  6.17569469E-04  1.64573537E-04  1.41823604E-04 -1.47420477E-04
 -4.44421021E-04  1.28029729E-04  9.01339526E-02  8.61043682E-02  8.52604909E-03
  1.74960889E-03  6.02809586E-03 -9.20926848E-03  1.69072215E-03  6.64862186E-03
 -7.17964442E-03  1.39491256E-03 -4.45911686E-04 -1.96162666E-03 -6.21664431E-04
  4.01395609E-04  9.05746465E-02  8.90418331E-02  1.06849153E-02  2.15721651E-03
 -1.07796636E-02 -1.78352087E-03  4.00156524E-03 -1.07068126E-02  9.81022505E-06
 -1.34150186E-03 -8.48107841E-05  7.88071457E-04 -2.07276223E-03 -9.28626912E-04
 -2.51700246E-02 -2.33837542E-02 -2.33084240E-03  9.75000659E-05  3.40339080E-03
  9.72745730E-04 -9.46750212E-04  3.42607642E-03  1.04620907E-03  4.36710199E-04
 -4.08675416E-05 -5.17698434E-04  7.70410188E-04 -1.19377962E-04 -1.62962966E-02
  3.47354348E-02  1.03696808E-02  3.53732523E-02 -1.47095776E-01  5.59704742E-02
  7.05472817E-02 -1.76593638E-01  6.49982394E-02  8.43022994E-02 -8.76950833E-02
  2.96858391E-02  4.47719734E-02  3.31719868E-03  9.10676488E-05  6.80163785E-04
 -8.15235010E-03 -1.41651689E-04  5.84316226E-03 -8.44945158E-04  1.29429976E-03
 -1.06805398E-02 -7.95992182E-05 -5.44275458E-04  1.05150050E-03 -7.35108560E-04
  5.52489126E-04  2.05852105E-04 -9.27014712E-04  6.35862812E-04 -1.29363413E-01
 -1.79737020E-01 -4.89784333E-02  2.70378083E-03  3.76278647E-04 -3.76468493E-03
  2.16262603E-03 -1.76852686E-03 -1.15139468E-02  2.59776865E-03  1.03955329E-03
 -3.45782229E-05 -5.16657627E-03  1.37232398E-03  3.31592312E-03 -1.46467104E-02
 -2.78011360E-03 -4.53805281E-02  1.88454870E-01  1.19996782E-01  6.68698836E-02
  2.33532532E-01  1.39256446E-01  8.04567850E-02  1.31612615E-01  6.93279613E-02
  4.31630271E-02 -4.09994469E-04 -6.37909242E-04  2.43837465E-03 -6.25097667E-03
  2.24539277E-03  5.57785354E-04 -3.02306707E-03  4.39605025E-03 -1.43093365E-02
  5.16443343E-03 -1.95817363E-03 -2.89010514E-03 -8.44869297E-04  4.98778356E-04
  9.06786208E-04  2.18774516E-03  6.77677847E-04  4.05722969E-02  4.69841487E-02
  1.40115724E-02 -2.94063717E-03  3.85372381E-03 -2.83920006E-03 -7.87571502E-03
  6.21624730E-03 -1.00146448E-03  4.16538364E-04  9.00133250E-04 -1.59600725E-03
 -7.63261750E-04 -5.43121399E-04  6.92363172E-02  9.20710645E-02  3.06637291E-02
 -1.77096874E-03 -7.61221293E-03 -2.04436927E-04 -5.65667237E-03 -9.45346329E-03
  1.58754327E-03 -1.47601312E-03  9.42735875E-05  4.45062017E-04 -2.52555364E-03
  4.45319422E-04  9.28328565E-02  1.33679502E-01  3.98126753E-02  3.12899400E-03