 Entering Gaussian System, Link 0=g16
 Input=ts_taup_anh_b2_qz.com
 Output=ts_taup_anh_b2_qz.log
 Initial command:
 /gpfs/fs1/soft/improv/software/custom-built/gaussian/g16/l1.exe "/scratch/b49793/Gau-1093827.inp" -scrdir="/scratch/b49793/"
 Entering Link 1 = /gpfs/fs1/soft/improv/software/custom-built/gaussian/g16/l1.exe PID=   1093828.
  
 Copyright (c) 1988-2021, Gaussian, Inc.  All Rights Reserved.
  
 This is part of the Gaussian(R) 16 program.  It is based on
 the Gaussian(R) 09 system (copyright 2009, Gaussian, Inc.),
 the Gaussian(R) 03 system (copyright 2003, Gaussian, Inc.),
 the Gaussian(R) 98 system (copyright 1998, Gaussian, Inc.),
 the Gaussian(R) 94 system (copyright 1995, Gaussian, Inc.),
 the Gaussian 92(TM) system (copyright 1992, Gaussian, Inc.),
 the Gaussian 90(TM) system (copyright 1990, Gaussian, Inc.),
 the Gaussian 88(TM) system (copyright 1988, Gaussian, Inc.),
 the Gaussian 86(TM) system (copyright 1986, Carnegie Mellon
 University), and the Gaussian 82(TM) system (copyright 1983,
 Carnegie Mellon University). Gaussian is a federally registered
 trademark of Gaussian, Inc.
  
 This software contains proprietary and confidential information,
 including trade secrets, belonging to Gaussian, Inc.
  
 This software is provided under written license and may be
 used, copied, transmitted, or stored only in accord with that
 written license.
  
 The following legend is applicable only to US Government
 contracts under FAR:
  
                    RESTRICTED RIGHTS LEGEND
  
 Use, reproduction and disclosure by the US Government is
 subject to restrictions as set forth in subparagraphs (a)
 and (c) of the Commercial Computer Software - Restricted
 Rights clause in FAR 52.227-19.
  
 Gaussian, Inc.
 340 Quinnipiac St., Bldg. 40, Wallingford CT 06492
  
  
 ---------------------------------------------------------------
 Warning -- This program may not be used in any manner that
 competes with the business of Gaussian, Inc. or will provide
 assistance to any competitor of Gaussian, Inc.  The licensee
 of this program is prohibited from giving any competitor of
 Gaussian, Inc. access to this program.  By using this program,
 the user acknowledges that Gaussian, Inc. is engaged in the
 business of creating and licensing software in the field of
 computational chemistry and represents and warrants to the
 licensee that it is not a competitor of Gaussian, Inc. and that
 it will not use this program in any manner prohibited above.
 ---------------------------------------------------------------
  

 Cite this work as:
 Gaussian 16, Revision C.02,
 M. J. Frisch, G. W. Trucks, H. B. Schlegel, G. E. Scuseria, 
 M. A. Robb, J. R. Cheeseman, G. Scalmani, V. Barone, 
 G. A. Petersson, H. Nakatsuji, X. Li, M. Caricato, A. V. Marenich, 
 J. Bloino, B. G. Janesko, R. Gomperts, B. Mennucci, H. P. Hratchian, 
 J. V. Ortiz, A. F. Izmaylov, J. L. Sonnenberg, D. Williams-Young, 
 F. Ding, F. Lipparini, F. Egidi, J. Goings, B. Peng, A. Petrone, 
 T. Henderson, D. Ranasinghe, V. G. Zakrzewski, J. Gao, N. Rega, 
 G. Zheng, W. Liang, M. Hada, M. Ehara, K. Toyota, R. Fukuda, 
 J. Hasegawa, M. Ishida, T. Nakajima, Y. Honda, O. Kitao, H. Nakai, 
 T. Vreven, K. Throssell, J. A. Montgomery, Jr., J. E. Peralta, 
 F. Ogliaro, M. J. Bearpark, J. J. Heyd, E. N. Brothers, K. N. Kudin, 
 V. N. Staroverov, T. A. Keith, R. Kobayashi, J. Normand, 
 K. Raghavachari, A. P. Rendell, J. C. Burant, S. S. Iyengar, 
 J. Tomasi, M. Cossi, J. M. Millam, M. Klene, C. Adamo, R. Cammi, 
 J. W. Ochterski, R. L. Martin, K. Morokuma, O. Farkas, 
 J. B. Foresman, and D. J. Fox, Gaussian, Inc., Wallingford CT, 2019.
 
 ******************************************
 Gaussian 16:  ES64L-G16RevC.02  7-Dec-2021
                23-Jul-2025 
 ******************************************
 %NProcShared=30
 Will use up to   30 processors via shared memory.
 %mem=3056MW
 ----------------------------------------------------------------------
 #b2plypd3/cc-pvqz opt=(ts,calcfc,noeigentest,internal) freq=anh int=su
 perfine
 ----------------------------------------------------------------------
 1/5=1,10=4,11=1,18=40,38=1,80=1/1,3;
 2/12=2,17=6,18=5,29=3,40=1/2;
 3/5=16,6=2,11=9,25=1,30=1,71=2,74=-60,75=-7,140=1/1,2,3;
 4//1;
 5/5=2,38=5/2;
 8/6=3,8=1,10=1,19=11,30=-1/1;
 9/15=3,16=-3/6;
 11/6=1,8=1,15=11,17=12,24=-1,27=1,28=-2,29=300,32=6,42=3/1,2,10;
 10/6=2,21=1/2;
 8/6=4,8=1,10=1,19=11,30=-1/11,4;
 10/5=1,20=4/2;
 11/12=2,14=11,16=1,17=2,28=-2,42=3,76=2/2,10,12;
 6/7=2,8=2,9=2,10=2/1;
 7/10=1,12=2,25=1,44=2/1,2,3,16;
 1/5=1,10=4,11=1,18=40,80=1/3(2);
 2/29=3/2;
 99//99;
 2/29=3/2;
 3/5=16,6=2,11=9,25=1,30=1,71=1,74=-60,75=-7/1,2,3;
 4/5=5,16=3,69=1/1;
 5/5=2,38=5/2;
 8/6=4,10=1/1;
 9/15=2,16=-3/6;
 10/5=1/2;
 7/12=2/1,2,3,16;
 1/5=1,11=1,18=40,80=1/3(-8);
 2/29=3/2;
 6/7=2,8=2,9=2,10=2/1;
 99/9=10/99;
 --
 ts
 --
 Symbolic Z-matrix:
 Charge =  0 Multiplicity = 2
 n1
 h1                   n1   rnh1
 x1                   h1    2.       n1    90. 
 o1                   h1   rts      x1   ahox     n1    180.     0
 h2                   n1   rnh2a    h1   ahnha    x1   b1a      0
 h3                   n1   rnh2b    h1   ahnhb    x1   b1b      0
 h4                   o1   roh      h1   ahoh     x1   bp       0
       Variables:
  rnh1                  1.1591                   
  rnh2a                 1.0178                   
  rnh2b                 1.0181                   
  roh                   0.9672                   
  ahox                119.929                    
  ahnha               107.5015                   
  ahnhb               109.6272                   
  ahoh                105.8754                   
  b1a                 130.8685                   
  b1b                -113.6848                   
  bp                  115.6742                   
  rts                   1.2645                   
 

 GradGradGradGradGradGradGradGradGradGradGradGradGradGradGradGradGradGrad
 Berny optimization.
 Initialization pass.
                       ----------------------------
                       !    Initial Parameters    !
                       ! (Angstroms and Degrees)  !
 ----------------------                            ----------------------
 !      Name          Value   Derivative information (Atomic Units)     !
 ------------------------------------------------------------------------
 !      rnh1         1.1591   calculate D2E/DX2 analytically            !
 !      rnh2a        1.0178   calculate D2E/DX2 analytically            !
 !      rnh2b        1.0181   calculate D2E/DX2 analytically            !
 !       roh         0.9672   calculate D2E/DX2 analytically            !
 !      ahox       119.929    calculate D2E/DX2 analytically            !
 !      ahnha      107.5015   calculate D2E/DX2 analytically            !
 !      ahnhb      109.6272   calculate D2E/DX2 analytically            !
 !      ahoh       105.8754   calculate D2E/DX2 analytically            !
 !       b1a       130.8685   calculate D2E/DX2 analytically            !
 !       b1b      -113.6848   calculate D2E/DX2 analytically            !
 !       bp        115.6742   calculate D2E/DX2 analytically            !
 !       rts         1.2645   calculate D2E/DX2 analytically            !
 ------------------------------------------------------------------------
 Trust Radius=3.00D-01 FncErr=1.00D-07 GrdErr=1.00D-07 EigMax=2.50D+02 EigMin=1.00D-04
 Number of steps in this run=     22 maximum allowed number of steps=    100.
 Search for a saddle point of order  1.
 GradGradGradGradGradGradGradGradGradGradGradGradGradGradGradGradGradGrad

 ---------------------------------------------------------------------------------------------------
                            Z-MATRIX (ANGSTROMS AND DEGREES)
   CD    Cent   Atom    N1       Length/X        N2       Alpha/Y        N3        Beta/Z          J
 ---------------------------------------------------------------------------------------------------
      1      1  N 
      2      2  H        1   1.159100(     1)
      3         X        2   2.000000(     2)      1   90.000(     7)
      4      3  O        2   1.264500(     3)      3  119.929(     8)      1  180.000(    12)      0
      5      4  H        1   1.017800(     4)      2  107.502(     9)      3  130.869(    13)      0
      6      5  H        1   1.018100(     5)      2  109.627(    10)      3 -113.685(    14)      0
      7      6  H        4   0.967200(     6)      2  105.875(    11)      3  115.674(    15)      0
 ---------------------------------------------------------------------------------------------------
                         Z-Matrix orientation:                         
 ---------------------------------------------------------------------
 Center     Atomic      Atomic             Coordinates (Angstroms)
 Number     Number       Type             X           Y           Z
 ---------------------------------------------------------------------
      1          7           0        0.000000    0.000000    0.000000
      2          1           0        0.000000    0.000000    1.159100
      3         -1           0        2.000000    0.000000    1.159100
      4          8           0       -0.630892   -0.000000    2.254972
      5          1           0       -0.635144   -0.734045   -0.306084
      6          1           0       -0.385213    0.878174   -0.341979
      7          1           0       -1.112205    0.838462    2.283166
 ---------------------------------------------------------------------
                    Distance matrix (angstroms):
                    1          2          3          4          5
     1  N    0.000000
     2  H    1.159100   0.000000
     3  X    2.311604   2.000000   0.000000
     4  O    2.341564   1.264500   2.850005   0.000000
     5  H    1.017800   1.757553   3.103154   2.664178   0.000000
     6  H    1.018100   1.781240   2.951892   2.752399   1.631871
     7  H    2.674484   1.789845   3.413556   0.967200   3.066689
                    6          7
     6  H    0.000000
     7  H    2.724239   0.000000
 Stoichiometry    H4NO(2)
 Framework group  C1[X(H4NO)]
 Deg. of freedom    12
 Full point group                 C1      NOp   1
 Largest Abelian subgroup         C1      NOp   1
 Largest concise Abelian subgroup C1      NOp   1
                         Standard orientation:                         
 ---------------------------------------------------------------------
 Center     Atomic      Atomic             Coordinates (Angstroms)
 Number     Number       Type             X           Y           Z
 ---------------------------------------------------------------------
      1          7           0       -1.155700   -0.034565   -0.104873
      2          1           0       -0.029695   -0.131366   -0.362276
      3          8           0        1.182934   -0.096574   -0.005511
      4          1           0       -1.329676   -0.598403    0.724425
      5          1           0       -1.366800    0.928381    0.149487
      6          1           0        1.352599    0.815932    0.266560
 ---------------------------------------------------------------------
 Rotational constants (GHZ):         172.8533361          10.6528760          10.3966340
 Standard basis: CC-pVQZ (5D, 7F)
 There are   280 symmetry adapted cartesian basis functions of A   symmetry.
 There are   230 symmetry adapted basis functions of A   symmetry.
   230 basis functions,   326 primitive gaussians,   280 cartesian basis functions
    10 alpha electrons        9 beta electrons
       nuclear repulsion energy        36.9511599619 Hartrees.
 NAtoms=    6 NActive=    6 NUniq=    6 SFac= 1.00D+00 NAtFMM=   60 NAOKFM=F Big=F
 Integral buffers will be    131072 words long.
 Regular integral format.
 Two-electron integral symmetry is turned on.
 Nuclear repulsion after empirical dispersion term =       36.9499211800 Hartrees.
 One-electron integrals computed using PRISM.
 NBasis=   230 RedAO= T EigKep=  2.43D-04  NBF=   230
 NBsUse=   230 1.00D-06 EigRej= -1.00D+00 NBFU=   230
 ExpMin= 8.99D-02 ExpMax= 6.14D+04 ExpMxC= 5.91D+02 IAcc=3 IRadAn=         7 AccDes= 0.00D+00
 Harris functional with IExCor=  419 and IRadAn=       7 diagonalized for initial guess.
 HarFok:  IExCor=  419 AccDes= 0.00D+00 IRadAn=         7 IDoV= 1 UseB2=F ITyADJ=14
 ICtDFT=  3500011 ScaDFX=  1.000000  1.000000  1.000000  1.000000
 FoFCou: FMM=F IPFlag=           0 FMFlag=      100000 FMFlg1=           0
         NFxFlg=           0 DoJE=T BraDBF=F KetDBF=T FulRan=T
         wScrn=  0.000000 ICntrl=       500 IOpCl=  0 I1Cent=   200000004 NGrid=           0
         NMat0=    1 NMatS0=      1 NMatT0=    0 NMatD0=    1 NMtDS0=    0 NMtDT0=    0
 Petite list used in FoFCou.
 Initial guess <Sx>= 0.0000 <Sy>= 0.0000 <Sz>= 0.5000 <S**2>= 0.7500 S= 0.5000
 Keep R1 and R2 ints in memory in canonical form, NReq=739231364.
 Requested convergence on RMS density matrix=1.00D-08 within 128 cycles.
 Requested convergence on MAX density matrix=1.00D-06.
 Requested convergence on             energy=1.00D-06.
 No special actions if energy rises.
 Integral accuracy reduced to 1.0D-05 until final iterations.
 Initial convergence to 1.0D-05 achieved.  Increase integral accuracy.
 SCF Done:  E(UB2PLYPD3) =  -132.104756134     A.U. after   21 cycles
            NFock= 21  Conv=0.43D-08     -V/T= 2.0028
 <Sx>= 0.0000 <Sy>= 0.0000 <Sz>= 0.5000 <S**2>= 0.7714 S= 0.5107
 <L.S>=  0.00000000000    
 Annihilation of the first spin contaminant:
 S**2 before annihilation     0.7714,   after     0.7501
 DoSCS=T DFT=T ScalE2(SS,OS)=  0.270000  0.270000
 ExpMin= 8.99D-02 ExpMax= 6.14D+04 ExpMxC= 5.91D+02 IAcc=3 IRadAn=         7 AccDes= 0.00D+00
 HarFok:  IExCor=  205 AccDes= 0.00D+00 IRadAn=         7 IDoV=-2 UseB2=F ITyADJ=14
 ICtDFT= 12500011 ScaDFX=  1.000000  1.000000  1.000000  1.000000
 Range of M.O.s used for correlation:     3   230
 NBasis=   230 NAE=    10 NBE=     9 NFC=     2 NFV=     0
 NROrb=    228 NOA=     8 NOB=     7 NVA=   220 NVB=   221

 **** Warning!!: The largest alpha MO coefficient is  0.15751198D+02


 **** Warning!!: The largest beta MO coefficient is  0.15527830D+02

 DoSCS=T DFT=T ScalE2(SS,OS)=  0.270000  0.270000
 Disk-based method using ON**2 memory for  8 occupieds at a time.
 Permanent disk used for amplitudes=     6335010 words.
 Estimated scratch disk usage=   308727334 words.
 Actual    scratch disk usage=   306374182 words.
 GetIJB would need an additional   568581514 words of memory to use all  30 processors.
 JobTyp=2 Pass  1:  I=   3 to  10 NPSUse= 25 ParTrn=T ParDer=T DoDerP=T.
 (rs|ai) integrals will be sorted in core.
 Actual    scratch disk usage=   306374182 words.
 GetIJB would need an additional   568573394 words of memory to use all  30 processors.
 JobTyp=3 Pass  1:  I=   3 to   9 NPSUse= 25 ParTrn=T ParDer=T DoDerP=T.
 (rs|ai) integrals will be sorted in core.
 Spin components of T(2) and E(2):
     alpha-alpha T2 =       0.2453329685D-01 E2=     -0.2104512234D-01
     alpha-beta  T2 =       0.1530808348D+00 E2=     -0.1264334569D+00
     beta-beta   T2 =       0.3164386254D-01 E2=     -0.1936596396D-01
 (S**2,0)=  0.77142D+00           (S**2,1)=  0.74048D+00
 Scaling Projection term by:   0.270000
 E(PUHF)=      -0.13211235897D+03        E(PMP2)=      -0.13227217675D+03
 E2(B2PLYPD3) =    -0.1668445432D+00 E(B2PLYPD3) =    -0.13227160067677D+03
 G2DrvN: will do     7 centers at a time, making    1 passes.
 Calling FoFCou, ICntrl=  3107 FMM=F I1Cent=   0 AccDes= 0.00D+00.
 End of G2Drv F.D. properties file   721 does not exist.
 End of G2Drv F.D. properties file   722 does not exist.
 End of G2Drv F.D. properties file   788 does not exist.
          IDoAtm=111111
          Differentiating once with respect to electric field.
                with respect to dipole field.
          Differentiating once with respect to nuclear coordinates.
 Keep R1 and R2 ints in memory in canonical form, NReq=739045824.
          There are    21 degrees of freedom in the 1st order CPHF.  IDoFFX=6 NUNeed=    21.
     18 vectors produced by pass  0 Test12= 1.99D-14 4.76D-09 XBig12= 6.27D+01 6.94D+00.
 AX will form    18 AO Fock derivatives at one time.
     18 vectors produced by pass  1 Test12= 1.99D-14 4.76D-09 XBig12= 1.10D+01 7.11D-01.
     18 vectors produced by pass  2 Test12= 1.99D-14 4.76D-09 XBig12= 6.53D-01 1.97D-01.
     18 vectors produced by pass  3 Test12= 1.99D-14 4.76D-09 XBig12= 8.74D-03 1.72D-02.
     18 vectors produced by pass  4 Test12= 1.99D-14 4.76D-09 XBig12= 1.29D-04 1.70D-03.
     18 vectors produced by pass  5 Test12= 1.99D-14 4.76D-09 XBig12= 1.01D-06 1.24D-04.
     18 vectors produced by pass  6 Test12= 1.99D-14 4.76D-09 XBig12= 5.63D-09 1.09D-05.
      7 vectors produced by pass  7 Test12= 1.99D-14 4.76D-09 XBig12= 4.19D-11 1.19D-06.
      3 vectors produced by pass  8 Test12= 1.99D-14 4.76D-09 XBig12= 2.82D-13 1.15D-07.
      1 vectors produced by pass  9 Test12= 1.99D-14 4.76D-09 XBig12= 1.51D-15 7.89D-09.
 InvSVY:  IOpt=1 It=  1 EMax= 3.28D-15
 Solved reduced A of dimension   137 with    21 vectors.
 End of Minotr F.D. properties file   721 does not exist.
 End of Minotr F.D. properties file   722 does not exist.
 End of Minotr F.D. properties file   788 does not exist.
 MDV=  3204448256.
 DoSCS=T DFT=T ScalE2(SS,OS)=  0.270000  0.270000
 Form MO integral derivatives with frozen-active canonical formalism.
 Discarding MO integrals.
 Reordered first order wavefunction length =     25817586
 In DefCFB: NBatch=  1 ICI= 10 ICA=221 LFMax= 74
            Large arrays: LIAPS=  1079086400 LIARS=   606424000 words.
 In DefCFB: NBatch=  1 ICI= 10 ICA=221 LFMax= 74
            Large arrays: LIAPS=  1079086400 LIARS=   606424000 words.
 Semi-Direct transformation.
 ModeAB=           2 MOrb=            10 LenV=    3202728976
 LASXX=     59022085 LTotXX=    59022085 LenRXX=    59022085
 LTotAB=    59904075 MaxLAS=    90482000 LenRXY=    90482000
 NonZer=   118044170 LenScr=   177822720 LnRSAI=           0
 LnScr1=           0 LExtra=           0 Total=    327326805
 MaxDsk=          -1 SrtSym=           F ITran=            4
 JobTyp=1 Pass  1:  I=   1 to  10.
 (rs|ai) integrals will be sorted in core.
 ModeAB=           2 MOrb=             9 LenV=    3202728976
 LASXX=     53256141 LTotXX=    53256141 LenRXX=    81433800
 LTotAB=    49446540 MaxLAS=    81433800 LenRXY=    49446540
 NonZer=   106512282 LenScr=   160528384 LnRSAI=           0
 LnScr1=           0 LExtra=           0 Total=    291408724
 MaxDsk=          -1 SrtSym=           F ITran=            4
 JobTyp=2 Pass  1:  I=   1 to   9.
 (rs|ai) integrals will be sorted in core.
 SymMOI:  orbitals are not symmetric.
 DoSCS=T DFT=T ScalE2(SS,OS)=  0.270000  0.270000
 Spin components of T(2) and E(2):
     alpha-alpha T2 =       0.2453329685D-01 E2=     -0.2104512234D-01
     alpha-beta  T2 =       0.1530808348D+00 E2=     -0.1264334569D+00
     beta-beta   T2 =       0.3164386254D-01 E2=     -0.1936596396D-01
 E2(B2PLYPD3) =    -0.1668445432D+00 E(B2PLYPD3) =    -0.13227160067677D+03
 (S**2,0)=  0.77142D+00           (S**2,1)=  0.74048D+00
 Scaling Projection term by:   0.270000
 E(PUHF)=      -0.13211235897D+03        E(PMP2)=      -0.13227217675D+03
          IDoAtm=111111
          Differentiating once with respect to electric field.
                with respect to dipole field.
          Differentiating once with respect to nuclear coordinates.
 Keep R1 and R2 ints in memory in canonical form, NReq=739235940.
          There are     1 degrees of freedom in the 1st order CPHF.  IDoFFX=0 NUNeed=     1.
 LinEq1:  Iter=  0 NonCon=     1 RMS=1.12D-03 Max=3.32D-02 NDo=     1
 AX will form     1 AO Fock derivatives at one time.
 LinEq1:  Iter=  1 NonCon=     1 RMS=2.96D-04 Max=9.93D-03 NDo=     1
 LinEq1:  Iter=  2 NonCon=     1 RMS=2.43D-04 Max=6.97D-03 NDo=     1
 LinEq1:  Iter=  3 NonCon=     1 RMS=9.95D-05 Max=2.33D-03 NDo=     1
 LinEq1:  Iter=  4 NonCon=     1 RMS=7.91D-05 Max=1.72D-03 NDo=     1
 LinEq1:  Iter=  5 NonCon=     1 RMS=3.39D-05 Max=1.09D-03 NDo=     1
 LinEq1:  Iter=  6 NonCon=     1 RMS=1.36D-05 Max=3.77D-04 NDo=     1
 LinEq1:  Iter=  7 NonCon=     1 RMS=4.16D-06 Max=9.44D-05 NDo=     1
 LinEq1:  Iter=  8 NonCon=     1 RMS=1.24D-06 Max=3.35D-05 NDo=     1
 LinEq1:  Iter=  9 NonCon=     1 RMS=4.04D-07 Max=7.95D-06 NDo=     1
 LinEq1:  Iter= 10 NonCon=     1 RMS=1.10D-07 Max=2.77D-06 NDo=     1
 LinEq1:  Iter= 11 NonCon=     1 RMS=2.52D-08 Max=3.92D-07 NDo=     1
 LinEq1:  Iter= 12 NonCon=     1 RMS=7.97D-09 Max=9.76D-08 NDo=     1
 LinEq1:  Iter= 13 NonCon=     1 RMS=1.97D-09 Max=2.76D-08 NDo=     1
 LinEq1:  Iter= 14 NonCon=     1 RMS=4.53D-10 Max=5.49D-09 NDo=     1
 LinEq1:  Iter= 15 NonCon=     1 RMS=1.01D-10 Max=1.53D-09 NDo=     1
 LinEq1:  Iter= 16 NonCon=     0 RMS=2.18D-11 Max=2.37D-10 NDo=     1
 Linear equations converged to 1.000D-10 1.000D-09 after    16 iterations.
 End of Minotr F.D. properties file   721 does not exist.
 End of Minotr F.D. properties file   722 does not exist.
 End of Minotr F.D. properties file   788 does not exist.
 Symmetrizing basis deriv contribution to polar:
 IMax=3 JMax=2 DiffMx= 0.00D+00
 G2DrvN: will do     7 centers at a time, making    1 passes.
 Calling FoFCou, ICntrl=  3107 FMM=F I1Cent=   0 AccDes= 0.00D+00.
 End of G2Drv F.D. properties file   721 does not exist.
 End of G2Drv F.D. properties file   722 does not exist.
 End of G2Drv F.D. properties file   788 does not exist.
 DoSCS=T DFT=T ScalE2(SS,OS)=  0.270000  0.270000
 R2 and R3 integrals will be kept in memory, NReq=  1558768820.
 DD1Dir will call FoFMem   1 times, MxPair=       262
 NAB=    90 NAA=    45 NBB=    36.
 Discarding MO integrals.

 **********************************************************************

            Population analysis using the SCF Density.

 **********************************************************************

 Orbital symmetries:
 Alpha Orbitals:
       Occupied  (A) (A) (A) (A) (A) (A) (A) (A) (A) (A)
       Virtual   (A) (A) (A) (A) (A) (A) (A) (A) (A) (A) (A) (A)
                 (A) (A) (A) (A) (A) (A) (A) (A) (A) (A) (A) (A)
                 (A) (A) (A) (A) (A) (A) (A) (A) (A) (A) (A) (A)
                 (A) (A) (A) (A) (A) (A) (A) (A) (A) (A) (A) (A)
                 (A) (A) (A) (A) (A) (A) (A) (A) (A) (A) (A) (A)
                 (A) (A) (A) (A) (A) (A) (A) (A) (A) (A) (A) (A)
                 (A) (A) (A) (A) (A) (A) (A) (A) (A) (A) (A) (A)
                 (A) (A) (A) (A) (A) (A) (A) (A) (A) (A) (A) (A)
                 (A) (A) (A) (A) (A) (A) (A) (A) (A) (A) (A) (A)
                 (A) (A) (A) (A) (A) (A) (A) (A) (A) (A) (A) (A)
                 (A) (A) (A) (A) (A) (A) (A) (A) (A) (A) (A) (A)
                 (A) (A) (A) (A) (A) (A) (A) (A) (A) (A) (A) (A)
                 (A) (A) (A) (A) (A) (A) (A) (A) (A) (A) (A) (A)
                 (A) (A) (A) (A) (A) (A) (A) (A) (A) (A) (A) (A)
                 (A) (A) (A) (A) (A) (A) (A) (A) (A) (A) (A) (A)
                 (A) (A) (A) (A) (A) (A) (A) (A) (A) (A) (A) (A)
                 (A) (A) (A) (A) (A) (A) (A) (A) (A) (A) (A) (A)
                 (A) (A) (A) (A) (A) (A) (A) (A) (A) (A) (A) (A)
                 (A) (A) (A) (A)
 Beta  Orbitals:
       Occupied  (A) (A) (A) (A) (A) (A) (A) (A) (A)
       Virtual   (A) (A) (A) (A) (A) (A) (A) (A) (A) (A) (A) (A)
                 (A) (A) (A) (A) (A) (A) (A) (A) (A) (A) (A) (A)
                 (A) (A) (A) (A) (A) (A) (A) (A) (A) (A) (A) (A)
                 (A) (A) (A) (A) (A) (A) (A) (A) (A) (A) (A) (A)
                 (A) (A) (A) (A) (A) (A) (A) (A) (A) (A) (A) (A)
                 (A) (A) (A) (A) (A) (A) (A) (A) (A) (A) (A) (A)
                 (A) (A) (A) (A) (A) (A) (A) (A) (A) (A) (A) (A)
                 (A) (A) (A) (A) (A) (A) (A) (A) (A) (A) (A) (A)
                 (A) (A) (A) (A) (A) (A) (A) (A) (A) (A) (A) (A)
                 (A) (A) (A) (A) (A) (A) (A) (A) (A) (A) (A) (A)
                 (A) (A) (A) (A) (A) (A) (A) (A) (A) (A) (A) (A)
                 (A) (A) (A) (A) (A) (A) (A) (A) (A) (A) (A) (A)
                 (A) (A) (A) (A) (A) (A) (A) (A) (A) (A) (A) (A)
                 (A) (A) (A) (A) (A) (A) (A) (A) (A) (A) (A) (A)
                 (A) (A) (A) (A) (A) (A) (A) (A) (A) (A) (A) (A)
                 (A) (A) (A) (A) (A) (A) (A) (A) (A) (A) (A) (A)
                 (A) (A) (A) (A) (A) (A) (A) (A) (A) (A) (A) (A)
                 (A) (A) (A) (A) (A) (A) (A) (A) (A) (A) (A) (A)
                 (A) (A) (A) (A) (A)
 The electronic state is 2-A.
 Alpha  occ. eigenvalues --  -19.74658 -14.86731  -1.14480  -1.00412  -0.61564
 Alpha  occ. eigenvalues --   -0.56795  -0.51419  -0.43179  -0.39860  -0.37539
 Alpha virt. eigenvalues --    0.04252   0.09644   0.11984   0.18860   0.28556
 Alpha virt. eigenvalues --    0.29817   0.35928   0.38093   0.39326   0.42548
 Alpha virt. eigenvalues --    0.43568   0.44880   0.46892   0.48380   0.50627
 Alpha virt. eigenvalues --    0.55874   0.58481   0.63061   0.70742   0.78578
 Alpha virt. eigenvalues --    0.80317   0.82839   0.86204   0.88362   0.98364
 Alpha virt. eigenvalues --    0.99556   1.02993   1.10050   1.11616   1.12924
 Alpha virt. eigenvalues --    1.15221   1.21823   1.29817   1.33125   1.35367
 Alpha virt. eigenvalues --    1.40675   1.46813   1.49930   1.55202   1.56904
 Alpha virt. eigenvalues --    1.61912   1.76502   1.98200   2.00618   2.06841
 Alpha virt. eigenvalues --    2.08500   2.12300   2.15474   2.19100   2.21155
 Alpha virt. eigenvalues --    2.23769   2.28544   2.30618   2.34425   2.36096
 Alpha virt. eigenvalues --    2.36416   2.38952   2.42091   2.45865   2.48015
 Alpha virt. eigenvalues --    2.50549   2.52008   2.55989   2.57728   2.61377
 Alpha virt. eigenvalues --    2.64334   2.69398   2.71742   2.80622   2.83068
 Alpha virt. eigenvalues --    2.93997   2.97336   2.97902   3.02430   3.07828
 Alpha virt. eigenvalues --    3.13140   3.22675   3.23906   3.28923   3.34982
 Alpha virt. eigenvalues --    3.40935   3.43265   3.56793   3.64023   3.69582
 Alpha virt. eigenvalues --    3.76853   3.78571   3.84370   3.90294   3.95259
 Alpha virt. eigenvalues --    3.95731   4.07986   4.09463   4.16107   4.20117
 Alpha virt. eigenvalues --    4.27314   4.33070   4.37943   4.50175   4.52021
 Alpha virt. eigenvalues --    4.56666   4.58705   4.65266   4.86802   5.11236
 Alpha virt. eigenvalues --    5.51888   5.88849   5.93393   5.94240   5.99559
 Alpha virt. eigenvalues --    6.00777   6.02287   6.03845   6.07065   6.13396
 Alpha virt. eigenvalues --    6.17791   6.38154   6.60006   6.63217   6.66473
 Alpha virt. eigenvalues --    6.76214   6.85423   6.89759   6.97325   7.01944
 Alpha virt. eigenvalues --    7.03208   7.07435   7.16707   7.20066   7.24155
 Alpha virt. eigenvalues --    7.27872   7.29959   7.32034   7.40769   7.55198
 Alpha virt. eigenvalues --    7.56878   7.65052   7.73856   7.80921   7.81452
 Alpha virt. eigenvalues --    7.85752   7.86925   7.90825   7.94287   7.97303
 Alpha virt. eigenvalues --    7.99017   7.99705   8.03026   8.05661   8.10603
 Alpha virt. eigenvalues --    8.14136   8.17922   8.21061   8.28979   8.31839
 Alpha virt. eigenvalues --    8.35483   8.38371   8.45063   8.46332   8.48105
 Alpha virt. eigenvalues --    8.50560   8.53869   8.61871   8.64776   8.68948
 Alpha virt. eigenvalues --    8.69653   8.76431   8.82225   8.88126   9.00183
 Alpha virt. eigenvalues --    9.13517   9.17649   9.20816   9.37483   9.38082
 Alpha virt. eigenvalues --    9.46129   9.54966   9.65699   9.69233   9.84713
 Alpha virt. eigenvalues --    9.90034   9.93026  10.01771  10.07842  10.11542
 Alpha virt. eigenvalues --   10.23291  10.26669  10.44698  10.59912  10.76438
 Alpha virt. eigenvalues --   10.88389  10.97783  11.02153  11.13368  11.28710
 Alpha virt. eigenvalues --   11.42511  11.50280  11.60606  11.63057  11.72948
 Alpha virt. eigenvalues --   11.77026  11.81263  11.83684  11.90645  12.00230
 Alpha virt. eigenvalues --   12.08945  12.24164  12.26225  12.41609  12.66191
 Alpha virt. eigenvalues --   13.41916  13.52266  13.69360  14.00017  14.04757
 Alpha virt. eigenvalues --   14.16538  14.77226  16.20853  33.64665  42.84826
  Beta  occ. eigenvalues --  -19.72658 -14.85279  -1.08586  -0.95708  -0.57548
  Beta  occ. eigenvalues --   -0.55632  -0.47905  -0.37864  -0.33719
  Beta virt. eigenvalues --   -0.07444   0.04694   0.10311   0.12256   0.19133
  Beta virt. eigenvalues --    0.28505   0.30391   0.37373   0.39142   0.39734
  Beta virt. eigenvalues --    0.43178   0.44119   0.45552   0.47496   0.48830
  Beta virt. eigenvalues --    0.53799   0.56968   0.59292   0.63591   0.71356
  Beta virt. eigenvalues --    0.78915   0.80564   0.83594   0.86651   0.88727
  Beta virt. eigenvalues --    0.98822   1.00776   1.03420   1.10821   1.12662
  Beta virt. eigenvalues --    1.13949   1.16157   1.22796   1.30217   1.33249
  Beta virt. eigenvalues --    1.36403   1.41562   1.47602   1.51002   1.56341
  Beta virt. eigenvalues --    1.58969   1.63267   1.77361   1.98685   2.02282
  Beta virt. eigenvalues --    2.07253   2.08965   2.12425   2.15962   2.19544
  Beta virt. eigenvalues --    2.21503   2.24606   2.28761   2.31160   2.34748
  Beta virt. eigenvalues --    2.36534   2.37329   2.39646   2.42565   2.46429
  Beta virt. eigenvalues --    2.48440   2.50639   2.53261   2.56250   2.58412
  Beta virt. eigenvalues --    2.62336   2.65359   2.70076   2.73166   2.81170
  Beta virt. eigenvalues --    2.84402   2.95046   2.98212   2.99623   3.02844
  Beta virt. eigenvalues --    3.08730   3.14074   3.24270   3.25028   3.30301
  Beta virt. eigenvalues --    3.36531   3.42446   3.44873   3.57622   3.65225
  Beta virt. eigenvalues --    3.70598   3.77767   3.79684   3.85706   3.91513
  Beta virt. eigenvalues --    3.96455   3.97491   4.10053   4.11031   4.17463
  Beta virt. eigenvalues --    4.22321   4.30664   4.33993   4.39652   4.52114
  Beta virt. eigenvalues --    4.53286   4.58018   4.60574   4.66460   4.88560
  Beta virt. eigenvalues --    5.12751   5.53477   5.89102   5.93396   5.94315
  Beta virt. eigenvalues --    5.99710   6.01042   6.02360   6.03641   6.07308
  Beta virt. eigenvalues --    6.13954   6.18212   6.38867   6.60676   6.63931
  Beta virt. eigenvalues --    6.66730   6.76904   6.86672   6.90460   6.97810
  Beta virt. eigenvalues --    7.02414   7.03809   7.07554   7.16587   7.20184
  Beta virt. eigenvalues --    7.24551   7.28354   7.30253   7.32302   7.41503
  Beta virt. eigenvalues --    7.55143   7.57630   7.65322   7.74529   7.80721
  Beta virt. eigenvalues --    7.81710   7.85776   7.87176   7.90771   7.94571
  Beta virt. eigenvalues --    7.97253   7.99187   7.99947   8.03245   8.05929
  Beta virt. eigenvalues --    8.10767   8.14147   8.18375   8.21030   8.28896
  Beta virt. eigenvalues --    8.32325   8.35569   8.38781   8.45432   8.46609
  Beta virt. eigenvalues --    8.48468   8.50892   8.54052   8.62295   8.65200
  Beta virt. eigenvalues --    8.69484   8.70745   8.77346   8.84011   8.89007
  Beta virt. eigenvalues --    9.01003   9.15141   9.19776   9.22486   9.39149
  Beta virt. eigenvalues --    9.40133   9.48397   9.56648   9.67358   9.70688
  Beta virt. eigenvalues --    9.85927   9.91567   9.94418  10.03360  10.09288
  Beta virt. eigenvalues --   10.12737  10.25171  10.28191  10.46901  10.62235
  Beta virt. eigenvalues --   10.78172  10.90954  10.99079  11.03816  11.15343
  Beta virt. eigenvalues --   11.30173  11.45853  11.51966  11.63058  11.65357
  Beta virt. eigenvalues --   11.75087  11.79562  11.83607  11.85386  11.91984
  Beta virt. eigenvalues --   12.02491  12.12378  12.26296  12.27764  12.45866
  Beta virt. eigenvalues --   12.70843  13.43618  13.53444  13.70829  14.03126
  Beta virt. eigenvalues --   14.05695  14.16718  14.80807  16.21699  33.65856
  Beta virt. eigenvalues --   42.86389
          Condensed to atoms (all electrons):
               1          2          3          4          5          6
     1  N    6.473312   0.234711  -0.068347   0.384643   0.390852   0.024121
     2  H    0.234711   0.341284   0.147507  -0.017557  -0.018188  -0.035458
     3  O   -0.068347   0.147507   8.065615   0.003684   0.005894   0.330245
     4  H    0.384643  -0.017557   0.003684   0.482480  -0.035981   0.000225
     5  H    0.390852  -0.018188   0.005894  -0.035981   0.497973   0.001742
     6  H    0.024121  -0.035458   0.330245   0.000225   0.001742   0.443148
          Atomic-Atomic Spin Densities.
               1          2          3          4          5          6
     1  N    0.642318   0.004826  -0.105631  -0.001672  -0.004519   0.003524
     2  H    0.004826  -0.043607  -0.014742  -0.000063   0.000130   0.002679
     3  O   -0.105631  -0.014742   0.685693   0.003279   0.003728  -0.009671
     4  H   -0.001672  -0.000063   0.003279  -0.018114   0.000516  -0.000149
     5  H   -0.004519   0.000130   0.003728   0.000516  -0.017100  -0.000530
     6  H    0.003524   0.002679  -0.009671  -0.000149  -0.000530  -0.012597
 Mulliken charges and spin densities:
               1          2
     1  N   -0.439292   0.538845
     2  H    0.347700  -0.050778
     3  O   -0.484597   0.562656
     4  H    0.182506  -0.016203
     5  H    0.157707  -0.017776
     6  H    0.235976  -0.016744
 Sum of Mulliken charges =  -0.00000   1.00000
 Mulliken charges and spin densities with hydrogens summed into heavy atoms:
               1          2
     1  N    0.248621   0.454088
     3  O   -0.248621   0.545912
 APT charges:
               1
     1  N   -0.225222
     2  H   -0.120433
     3  O   -0.318058
     4  H    0.226824
     5  H    0.216868
     6  H    0.220022
 Sum of APT charges =  -0.00000
 APT charges with hydrogens summed into heavy atoms:
               1
     1  N    0.098036
     3  O   -0.098036
 Electronic spatial extent (au):  <R**2>=            132.2680
 Charge=             -0.0000 electrons
 Dipole moment (field-independent basis, Debye):
    X=             -1.1207    Y=              1.8887    Z=              1.4831  Tot=              2.6500
 Quadrupole moment (field-independent basis, Debye-Ang):
   XX=            -14.0351   YY=            -11.1918   ZZ=            -14.2337
   XY=              1.4217   XZ=             -1.6476   YZ=             -0.0604
 Traceless Quadrupole moment (field-independent basis, Debye-Ang):
   XX=             -0.8815   YY=              1.9617   ZZ=             -1.0802
   XY=              1.4217   XZ=             -1.6476   YZ=             -0.0604
 Octapole moment (field-independent basis, Debye-Ang**2):
  XXX=              2.1226  YYY=              2.6527  ZZZ=              1.5613  XYY=              0.3468
  XXY=              4.6560  XXZ=              4.5803  XZZ=              0.3428  YZZ=             -0.1069
  YYZ=              1.2332  XYZ=              1.7183
 Hexadecapole moment (field-independent basis, Debye-Ang**3):
 XXXX=           -123.2557 YYYY=            -15.4264 ZZZZ=            -16.4240 XXXY=              2.7362
 XXXZ=             -4.2326 YYYX=              0.6153 YYYZ=              0.1323 ZZZX=             -2.1003
 ZZZY=             -0.6442 XXYY=            -18.8984 XXZZ=            -24.2700 YYZZ=             -5.3418
 XXYZ=             -0.1924 YYXZ=             -0.7928 ZZXY=              0.9276
 N-N= 3.694992117999D+01 E-N=-3.853990667889D+02  KE= 1.317347643330D+02
  Exact polarizability:      58.507       1.232      18.777       1.434       0.411      17.086
 Approx polarizability:      45.298      -0.125      20.489       1.228       0.508      17.587
                          Isotropic Fermi Contact Couplings
        Atom                 a.u.       MegaHertz       Gauss      10(-4) cm-1
     1  N(14)             -0.00448      -1.44711      -0.51637      -0.48270
     2  H(1)              -0.01745     -78.01579     -27.83798     -26.02327
     3  O(17)              0.02591     -15.70731      -5.60476      -5.23940
     4  H(1)              -0.00831     -37.12943     -13.24870     -12.38505
     5  H(1)              -0.00841     -37.57962     -13.40934     -12.53521
     6  H(1)              -0.00734     -32.81673     -11.70983     -10.94648
 --------------------------------------------------------
       Center         ----  Spin Dipole Couplings  ----
                      3XX-RR        3YY-RR        3ZZ-RR
 --------------------------------------------------------
     1   Atom        1.169556     -0.689494     -0.480062
     2   Atom        0.180286     -0.107484     -0.072802
     3   Atom        2.043933     -1.030685     -1.013248
     4   Atom       -0.007573     -0.017684      0.025256
     5   Atom       -0.005986      0.060775     -0.054788
     6   Atom       -0.009563      0.070729     -0.061166
 --------------------------------------------------------
                        XY            XZ            YZ
 --------------------------------------------------------
     1   Atom        0.305880      0.736956      0.108737
     2   Atom       -0.019626     -0.022854      0.012434
     3   Atom       -0.403841     -0.519625      0.073872
     4   Atom        0.027015     -0.008991     -0.062029
     5   Atom       -0.027375      0.010247      0.030935
     6   Atom        0.028640      0.002344      0.042853
 --------------------------------------------------------


 ---------------------------------------------------------------------------------
              Anisotropic Spin Dipole Couplings in Principal Axis System
 ---------------------------------------------------------------------------------

       Atom             a.u.   MegaHertz   Gauss  10(-4) cm-1        Axes

              Baa    -0.7635   -29.445   -10.507    -9.822 -0.3801  0.2725  0.8839
     1 N(14)  Bbb    -0.7355   -28.367   -10.122    -9.462 -0.0337  0.9509 -0.3076
              Bcc     1.4990    57.811    20.629    19.284  0.9243  0.1467  0.3523
 
              Baa    -0.1120   -59.747   -21.319   -19.929  0.0425  0.9592 -0.2796
     2 H(1)   Bbb    -0.0718   -38.321   -13.674   -12.782  0.1080  0.2738  0.9557
              Bcc     0.1838    98.067    34.993    32.712  0.9932 -0.0708 -0.0919
 
              Baa    -1.1018    79.722    28.447    26.592  0.1093 -0.3471  0.9314
     3 O(17)  Bbb    -1.0805    78.186    27.899    26.080  0.1743  0.9292  0.3258
              Bcc     2.1823  -157.908   -56.346   -52.673  0.9786 -0.1267 -0.1621
 
              Baa    -0.0669   -35.713   -12.743   -11.913 -0.2893  0.8070  0.5148
     4 H(1)   Bbb    -0.0090    -4.793    -1.710    -1.599  0.9179  0.0813  0.3884
              Bcc     0.0759    40.506    14.454    13.511 -0.2716 -0.5849  0.7643
 
              Baa    -0.0674   -35.947   -12.827   -11.991 -0.2787 -0.2812  0.9183
     5 H(1)   Bbb    -0.0084    -4.491    -1.603    -1.498  0.9160  0.2094  0.3421
              Bcc     0.0758    40.438    14.429    13.489 -0.2885  0.9365  0.1992
 
              Baa    -0.0744   -39.721   -14.173   -13.249  0.0979 -0.2995  0.9491
     6 H(1)   Bbb    -0.0168    -8.987    -3.207    -2.998  0.9581 -0.2295 -0.1713
              Bcc     0.0913    48.708    17.380    16.247  0.2691  0.9261  0.2644
 

 ---------------------------------------------------------------------------------

 Calling FoFJK, ICntrl=  10100127 FMM=F ISym2X=0 I1Cent= 0 IOpClX= 1 NMat=1 NMatS=1 NMatT=0.
 ***** Axes restored to original set *****
 -------------------------------------------------------------------
 Center     Atomic                   Forces (Hartrees/Bohr)
 Number     Number              X              Y              Z
 -------------------------------------------------------------------
      1        7          -0.002285529    0.000203803   -0.001798178
      2        1          -0.002135438    0.000176650    0.007016796
      3        8           0.001701090    0.001856017   -0.006081137
      4        1           0.000891233    0.001014427    0.000544094
      5        1           0.000607518   -0.001234049    0.000731155
      6        1           0.001221127   -0.002016848   -0.000412730
 -------------------------------------------------------------------
 Cartesian Forces:  Max     0.007016796 RMS     0.002537707
 -----------------------------------------------------------------------------------------------
                       Internal Coordinate Forces (Hartree/Bohr or radian)
  Cent   Atom   N1       Length/X         N2         Alpha/Y        N3         Beta/Z          J
 -----------------------------------------------------------------------------------------------
      1  N 
      2  H        1   0.000523(     1)
         X        2   0.000000(     2)      1   0.002001(     7)
      3  O        2  -0.007086(     3)      3   0.002001(     8)      1   0.000213(    12)     0
      4  H        1  -0.001451(     4)      2  -0.000217(     9)      3  -0.000019(    13)     0
      5  H        1  -0.001540(     5)      2  -0.000437(    10)      3   0.000110(    14)     0
      6  H        4  -0.002368(     6)      2  -0.000606(    11)      3   0.000186(    15)     0
 -----------------------------------------------------------------------------------------------
 Internal  Forces:  Max     0.007085845 RMS     0.002149001

 GradGradGradGradGradGradGradGradGradGradGradGradGradGradGradGradGradGrad
 Berny optimization.
 Search for a saddle point.
 Step number   1 out of a maximum of   22
 All quantities printed in internal units (Hartrees-Bohrs-Radians)
 Swapping is turned off.
 Second derivative matrix not updated -- analytic derivatives used.
 The second derivative matrix:
                         rnh1      rnh2a     rnh2b      roh      ahox
           rnh1         0.15116
           rnh2a       -0.00522   0.43949
           rnh2b       -0.00522  -0.00317   0.43785
           roh          0.00245   0.00033   0.00085   0.50986
           ahox        -0.00421   0.00395   0.00260   0.00152   0.04585
           ahnha        0.00492   0.00185  -0.01021   0.00023   0.00012
           ahnhb        0.00345  -0.00924   0.00145   0.00118  -0.00087
           ahoh         0.01010  -0.00015   0.00100   0.00863  -0.00147
           b1a         -0.00332  -0.02087  -0.02316  -0.00100   0.00705
           b1b          0.00436   0.02207   0.02152   0.00070  -0.00492
           bp           0.00189   0.00012  -0.00005   0.00088   0.00452
           rts          0.13487   0.00149   0.00237  -0.00457  -0.02361
                         ahnha     ahnhb     ahoh       b1a       b1b
           ahnha        0.12643
           ahnhb        0.03654   0.12743
           ahoh        -0.00102  -0.00121   0.08268
           b1a          0.05874   0.05907   0.00001   0.11101
           b1b         -0.05904  -0.05531  -0.00596  -0.10356   0.10690
           bp          -0.00086   0.00401  -0.00727   0.00252  -0.00044
           rts          0.00741   0.00927   0.00681   0.00091  -0.00167
                          bp        rts
           bp           0.00429
           rts         -0.00244   0.07266
 ITU=  0
     Eigenvalues ---   -0.03262   0.00273   0.00531   0.04689   0.06732
     Eigenvalues ---    0.08379   0.09046   0.25503   0.29662   0.44218
     Eigenvalues ---    0.44777   0.51012
 Eigenvectors required to have negative eigenvalues:
                          rts      rnh1      ahox       bp        b1b
   1                    0.78790  -0.57575   0.20544   0.06138   0.02607
                         ahnhb     rnh2b     rnh2a     ahoh       roh
   1                   -0.02316  -0.01298  -0.01250   0.01090   0.00843
 RFO step:  Lambda0=8.822402041D-04 Lambda=-2.77799647D-04.
 Linear search not attempted -- option 19 set.
 Variable       Old X    -DE/DX   Delta X   Delta X   Delta X     New X
                                 (Linear)    (Quad)   (Total)
   rnh1       2.19038   0.00052   0.00000  -0.09353  -0.09353   2.09685
  rnh2a       1.92336  -0.00145   0.00000  -0.00638  -0.00638   1.91699
  rnh2b       1.92393  -0.00154   0.00000  -0.00631  -0.00631   1.91762
   roh        1.82774  -0.00237   0.00000  -0.00365  -0.00365   1.82409
   ahox       2.09316   0.00200   0.00000   0.08707   0.08707   2.18022
  ahnha       1.87626  -0.00022   0.00000   0.00310   0.00310   1.87936
  ahnhb       1.91336  -0.00044   0.00000  -0.00613  -0.00613   1.90722
   ahoh       1.84787  -0.00061   0.00000   0.00377   0.00377   1.85165
   b1a        2.28409  -0.00002   0.00000  -0.00502  -0.00502   2.27906
   b1b       -1.98417   0.00011   0.00000   0.00737   0.00737  -1.97680
    bp        2.01890   0.00019   0.00000   0.07010   0.07010   2.08899
   rts        2.38956  -0.00709   0.00000   0.10881   0.10881   2.49837
         Item               Value     Threshold  Converged?
 Maximum Force            0.007086     0.000450     NO 
 RMS     Force            0.002331     0.000300     NO 
 Maximum Displacement     0.108808     0.001800     NO 
 RMS     Displacement     0.052691     0.001200     NO 
 Predicted change in Energy= 3.128685D-04
 GradGradGradGradGradGradGradGradGradGradGradGradGradGradGradGradGradGrad

 ---------------------------------------------------------------------------------------------------
                            Z-MATRIX (ANGSTROMS AND DEGREES)
   CD    Cent   Atom    N1       Length/X        N2       Alpha/Y        N3        Beta/Z          J
 ---------------------------------------------------------------------------------------------------
      1      1  N 
      2      2  H        1   1.109606(     1)
      3         X        2   2.000000(     2)      1   90.000(     7)
      4      3  O        2   1.322079(     3)      3  124.918(     8)      1  180.000(    12)      0
      5      4  H        1   1.014426(     4)      2  107.679(     9)      3  130.581(    13)      0
      6      5  H        1   1.014759(     5)      2  109.276(    10)      3 -113.262(    14)      0
      7      6  H        4   0.965268(     6)      2  106.091(    11)      3  119.690(    15)      0
 ---------------------------------------------------------------------------------------------------
                         Z-Matrix orientation:                         
 ---------------------------------------------------------------------
 Center     Atomic      Atomic             Coordinates (Angstroms)
 Number     Number       Type             X           Y           Z
 ---------------------------------------------------------------------
      1          7           0        0.000000    0.000000    0.000000
      2          1           0        0.000000    0.000000    1.109606
      3         -1           0        2.000000    0.000000    1.109606
      4          8           0       -0.756756   -0.000000    2.193678
      5          1           0       -0.628737   -0.734059   -0.308071
      6          1           0       -0.378304    0.880002   -0.334989
      7          1           0       -1.286577    0.805688    2.150111
 ---------------------------------------------------------------------
                    Distance matrix (angstroms):
                    1          2          3          4          5
     1  N    0.000000
     2  H    1.109606   0.000000
     3  X    2.287187   2.000000   0.000000
     4  O    2.320539   1.322079   2.962248   0.000000
     5  H    1.014426   1.715797   3.075533   2.610360   0.000000
     6  H    1.014759   1.733313   2.918491   2.704032   1.633595
     7  H    2.631994   1.840398   3.540250   0.965268   2.974262
                    6          7
     6  H    0.000000
     7  H    2.646924   0.000000
 Stoichiometry    H4NO(2)
 Framework group  C1[X(H4NO)]
 Deg. of freedom    12
 Full point group                 C1      NOp   1
 Largest Abelian subgroup         C1      NOp   1
 Largest concise Abelian subgroup C1      NOp   1
                         Standard orientation:                         
 ---------------------------------------------------------------------
 Center     Atomic      Atomic             Coordinates (Angstroms)
 Number     Number       Type             X           Y           Z
 ---------------------------------------------------------------------
      1          7           0       -1.144904   -0.040273   -0.098093
      2          1           0       -0.085650   -0.162069   -0.405292
      3          8           0        1.173229   -0.094084   -0.007180
      4          1           0       -1.277020   -0.557833    0.764309
      5          1           0       -1.323786    0.937197    0.107549
      6          1           0        1.314951    0.817289    0.277526
 ---------------------------------------------------------------------
 Rotational constants (GHZ):         169.7917778          10.8808496          10.6345498
 Standard basis: CC-pVQZ (5D, 7F)
 There are   280 symmetry adapted cartesian basis functions of A   symmetry.
 There are   230 symmetry adapted basis functions of A   symmetry.
   230 basis functions,   326 primitive gaussians,   280 cartesian basis functions
    10 alpha electrons        9 beta electrons
       nuclear repulsion energy        37.1961597030 Hartrees.
 NAtoms=    6 NActive=    6 NUniq=    6 SFac= 1.00D+00 NAtFMM=   60 NAOKFM=F Big=F
 Integral buffers will be    131072 words long.
 Regular integral format.
 Two-electron integral symmetry is turned on.
 Nuclear repulsion after empirical dispersion term =       37.1948912737 Hartrees.
 One-electron integrals computed using PRISM.
 NBasis=   230 RedAO= T EigKep=  2.26D-04  NBF=   230
 NBsUse=   230 1.00D-06 EigRej= -1.00D+00 NBFU=   230
 Initial guess from the checkpoint file:  "/scratch/b49793/Gau-1093828.chk"
 B after Tr=     0.000000    0.000000    0.000000
         Rot=    0.999859    0.016704   -0.001840   -0.000300 Ang=   1.93 deg.
 Initial guess <Sx>= 0.0000 <Sy>= 0.0000 <Sz>= 0.5000 <S**2>= 0.7712 S= 0.5105
 ExpMin= 8.99D-02 ExpMax= 6.14D+04 ExpMxC= 5.91D+02 IAcc=3 IRadAn=         7 AccDes= 0.00D+00
 Harris functional with IExCor=  419 and IRadAn=       7 diagonalized for initial guess.
 HarFok:  IExCor=  419 AccDes= 0.00D+00 IRadAn=         7 IDoV= 1 UseB2=F ITyADJ=14
 ICtDFT=  3500011 ScaDFX=  1.000000  1.000000  1.000000  1.000000
 FoFCou: FMM=F IPFlag=           0 FMFlag=      100000 FMFlg1=           0
         NFxFlg=           0 DoJE=T BraDBF=F KetDBF=T FulRan=T
         wScrn=  0.000000 ICntrl=       500 IOpCl=  0 I1Cent=   200000004 NGrid=           0
         NMat0=    1 NMatS0=      1 NMatT0=    0 NMatD0=    1 NMtDS0=    0 NMtDT0=    0
 Petite list used in FoFCou.
 Keep R1 and R2 ints in memory in canonical form, NReq=739231364.
 Requested convergence on RMS density matrix=1.00D-08 within 128 cycles.
 Requested convergence on MAX density matrix=1.00D-06.
 Requested convergence on             energy=1.00D-06.
 No special actions if energy rises.
 Integral accuracy reduced to 1.0D-05 until final iterations.
 Initial convergence to 1.0D-05 achieved.  Increase integral accuracy.
 SCF Done:  E(UB2PLYPD3) =  -132.106122378     A.U. after   18 cycles
            NFock= 18  Conv=0.35D-08     -V/T= 2.0025
 <Sx>= 0.0000 <Sy>= 0.0000 <Sz>= 0.5000 <S**2>= 0.7686 S= 0.5092
 <L.S>=  0.00000000000    
 Annihilation of the first spin contaminant:
 S**2 before annihilation     0.7686,   after     0.7501
 DoSCS=T DFT=T ScalE2(SS,OS)=  0.270000  0.270000
 ExpMin= 8.99D-02 ExpMax= 6.14D+04 ExpMxC= 5.91D+02 IAcc=3 IRadAn=         7 AccDes= 0.00D+00
 HarFok:  IExCor=  205 AccDes= 0.00D+00 IRadAn=         7 IDoV=-2 UseB2=F ITyADJ=14
 ICtDFT= 12500011 ScaDFX=  1.000000  1.000000  1.000000  1.000000
 Range of M.O.s used for correlation:     3   230
 NBasis=   230 NAE=    10 NBE=     9 NFC=     2 NFV=     0
 NROrb=    228 NOA=     8 NOB=     7 NVA=   220 NVB=   221

 **** Warning!!: The largest alpha MO coefficient is  0.18024198D+02


 **** Warning!!: The largest beta MO coefficient is  0.17801178D+02

 DoSCS=T DFT=T ScalE2(SS,OS)=  0.270000  0.270000
 Fully direct method using O(ONN) memory.
 JobTyp=2 Pass  1:  I=   3 to   6 NPSUse= 30 ParTrn=T ParDer=T DoDerP=T.
 JobTyp=2 Pass  2:  I=   7 to  10 NPSUse= 30 ParTrn=T ParDer=T DoDerP=T.
 JobTyp=3 Pass  1:  I=   3 to   6 NPSUse= 30 ParTrn=T ParDer=T DoDerP=T.
 JobTyp=3 Pass  2:  I=   7 to   9 NPSUse= 30 ParTrn=T ParDer=T DoDerP=T.
 Spin components of T(2) and E(2):
     alpha-alpha T2 =       0.2407125117D-01 E2=     -0.2085702773D-01
     alpha-beta  T2 =       0.1497735362D+00 E2=     -0.1253150685D+00
     beta-beta   T2 =       0.3056831242D-01 E2=     -0.1894357898D-01
 (S**2,0)=  0.76856D+00           (S**2,1)=  0.74158D+00
 Scaling Projection term by:   0.270000
 E(PUHF)=      -0.13211301319D+03        E(PMP2)=      -0.13227175122D+03
 E2(B2PLYPD3) =    -0.1651156753D+00 E(B2PLYPD3) =    -0.13227123805318D+03
          IDoAtm=111111
          Differentiating once with respect to electric field.
                with respect to dipole field.
          Differentiating once with respect to nuclear coordinates.
 Keep R1 and R2 ints in memory in canonical form, NReq=739235940.
          There are     1 degrees of freedom in the 1st order CPHF.  IDoFFX=0 NUNeed=     1.
 LinEq1:  Iter=  0 NonCon=     1 RMS=1.37D-03 Max=6.52D-02 NDo=     1
 AX will form     1 AO Fock derivatives at one time.
 LinEq1:  Iter=  1 NonCon=     1 RMS=3.62D-04 Max=4.70D-03 NDo=     1
 LinEq1:  Iter=  2 NonCon=     1 RMS=4.35D-04 Max=1.60D-02 NDo=     1
 LinEq1:  Iter=  3 NonCon=     1 RMS=1.39D-04 Max=2.44D-03 NDo=     1
 LinEq1:  Iter=  4 NonCon=     1 RMS=1.00D-04 Max=2.13D-03 NDo=     1
 LinEq1:  Iter=  5 NonCon=     1 RMS=3.49D-05 Max=1.35D-03 NDo=     1
 LinEq1:  Iter=  6 NonCon=     1 RMS=1.51D-05 Max=4.91D-04 NDo=     1
 LinEq1:  Iter=  7 NonCon=     1 RMS=4.28D-06 Max=8.63D-05 NDo=     1
 LinEq1:  Iter=  8 NonCon=     1 RMS=1.32D-06 Max=4.29D-05 NDo=     1
 LinEq1:  Iter=  9 NonCon=     1 RMS=3.96D-07 Max=7.73D-06 NDo=     1
 LinEq1:  Iter= 10 NonCon=     1 RMS=1.04D-07 Max=2.76D-06 NDo=     1
 LinEq1:  Iter= 11 NonCon=     1 RMS=2.73D-08 Max=4.65D-07 NDo=     1
 LinEq1:  Iter= 12 NonCon=     1 RMS=8.96D-09 Max=1.03D-07 NDo=     1
 LinEq1:  Iter= 13 NonCon=     1 RMS=1.94D-09 Max=2.82D-08 NDo=     1
 LinEq1:  Iter= 14 NonCon=     1 RMS=4.19D-10 Max=4.65D-09 NDo=     1
 LinEq1:  Iter= 15 NonCon=     1 RMS=9.97D-11 Max=1.35D-09 NDo=     1
 LinEq1:  Iter= 16 NonCon=     0 RMS=2.11D-11 Max=2.37D-10 NDo=     1
 Linear equations converged to 1.000D-10 1.000D-09 after    16 iterations.
 End of Minotr F.D. properties file   721 does not exist.
 End of Minotr F.D. properties file   722 does not exist.
 End of Minotr F.D. properties file   788 does not exist.
 Calling FoFJK, ICntrl=  10002127 FMM=F ISym2X=0 I1Cent= 0 IOpClX= 1 NMat=1 NMatS=1 NMatT=0.
 ***** Axes restored to original set *****
 -------------------------------------------------------------------
 Center     Atomic                   Forces (Hartrees/Bohr)
 Number     Number              X              Y              Z
 -------------------------------------------------------------------
      1        7          -0.000222630    0.000117772   -0.002968552
      2        1           0.000590987   -0.000086782    0.002219271
      3        8          -0.000548113    0.000028534    0.001015350
      4        1           0.000091535    0.000054085   -0.000096219
      5        1           0.000103045   -0.000086957   -0.000167177
      6        1          -0.000014824   -0.000026652   -0.000002672
 -------------------------------------------------------------------
 Cartesian Forces:  Max     0.002968552 RMS     0.000929680
 -----------------------------------------------------------------------------------------------
                       Internal Coordinate Forces (Hartree/Bohr or radian)
  Cent   Atom   N1       Length/X         N2         Alpha/Y        N3         Beta/Z          J
 -----------------------------------------------------------------------------------------------
      1  N 
      2  H        1   0.003232(     1)
         X        2  -0.000000(     2)      1  -0.000294(     7)
      3  O        2   0.001153(     3)      3  -0.000294(     8)      1   0.000010(    12)     0
      4  H        1  -0.000067(     4)      2   0.000234(     9)      3  -0.000063(    13)     0
      5  H        1  -0.000059(     5)      2   0.000379(    10)      3   0.000109(    14)     0
      6  H        4  -0.000014(     6)      2   0.000019(    11)      3   0.000044(    15)     0
 -----------------------------------------------------------------------------------------------
 Internal  Forces:  Max     0.003231949 RMS     0.000900781

 GradGradGradGradGradGradGradGradGradGradGradGradGradGradGradGradGradGrad
 Berny optimization.
 Search for a saddle point.
 Step number   2 out of a maximum of   22
 All quantities printed in internal units (Hartrees-Bohrs-Radians)
 Swapping is turned off.
 Update second derivatives using D2CorN and points    1    2
 The second derivative matrix:
                         rnh1      rnh2a     rnh2b      roh      ahox
           rnh1         0.16000
           rnh2a       -0.00501   0.43947
           rnh2b       -0.00501  -0.00318   0.43784
           roh          0.00261   0.00033   0.00084   0.50986
           ahox        -0.00872   0.00401   0.00265   0.00151   0.04658
           ahnha        0.00510   0.00187  -0.01018   0.00024  -0.00018
           ahnhb        0.00427  -0.00921   0.00148   0.00120  -0.00138
           ahoh         0.00995  -0.00014   0.00100   0.00863  -0.00148
           b1a         -0.00317  -0.02088  -0.02317  -0.00101   0.00711
           b1b          0.00417   0.02209   0.02154   0.00071  -0.00504
           bp          -0.00137   0.00019   0.00001   0.00090   0.00476
           rts          0.13151   0.00172   0.00259  -0.00448  -0.02481
                         ahnha     ahnhb     ahoh       b1a       b1b
           ahnha        0.12641
           ahnhb        0.03654   0.12750
           ahoh        -0.00104  -0.00123   0.08268
           b1a          0.05876   0.05910   0.00002   0.11100
           b1b         -0.05907  -0.05534  -0.00597  -0.10354   0.10687
           bp          -0.00111   0.00362  -0.00730   0.00259  -0.00056
           rts          0.00697   0.00877   0.00671   0.00111  -0.00200
                          bp        rts
           bp           0.00422
           rts         -0.00383   0.06851
 ITU=  0  0
     Eigenvalues ---   -0.02862   0.00265   0.00529   0.04643   0.06735
     Eigenvalues ---    0.08377   0.09047   0.25688   0.29668   0.44218
     Eigenvalues ---    0.44775   0.51012
 Eigenvectors required to have negative eigenvalues:
                          rts      rnh1      ahox       bp        b1b
   1                    0.80561  -0.55352   0.20191   0.04585   0.03094
                         ahnhb     rnh2b     rnh2a      roh      ahoh
   1                   -0.01759  -0.01324  -0.01268   0.00864   0.00750
 RFO step:  Lambda0=2.949725754D-05 Lambda=-4.86109343D-05.
 Linear search not attempted -- option 19 set.
 Variable       Old X    -DE/DX   Delta X   Delta X   Delta X     New X
                                 (Linear)    (Quad)   (Total)
   rnh1       2.09685   0.00323   0.00000  -0.00585  -0.00585   2.09101
  rnh2a       1.91699  -0.00007   0.00000  -0.00065  -0.00065   1.91634
  rnh2b       1.91762  -0.00006   0.00000  -0.00064  -0.00064   1.91698
   roh        1.82409  -0.00001   0.00000   0.00017   0.00017   1.82426
   ahox       2.18022  -0.00029   0.00000   0.00710   0.00710   2.18732
  ahnha       1.87936   0.00023   0.00000   0.00242   0.00242   1.88178
  ahnhb       1.90722   0.00038   0.00000   0.00154   0.00154   1.90877
   ahoh       1.85165   0.00002   0.00000   0.00166   0.00166   1.85331
   b1a        2.27906  -0.00006   0.00000  -0.00109  -0.00109   2.27798
   b1b       -1.97680   0.00011   0.00000   0.00379   0.00379  -1.97301
    bp        2.08899   0.00004   0.00000   0.03264   0.03264   2.12164
   rts        2.49837   0.00115   0.00000   0.03202   0.03202   2.53039
         Item               Value     Threshold  Converged?
 Maximum Force            0.003232     0.000450     NO 
 RMS     Force            0.001004     0.000300     NO 
 Maximum Displacement     0.032645     0.001800     NO 
 RMS     Displacement     0.013550     0.001200     NO 
 Predicted change in Energy=-9.570215D-06
 GradGradGradGradGradGradGradGradGradGradGradGradGradGradGradGradGradGrad

 ---------------------------------------------------------------------------------------------------
                            Z-MATRIX (ANGSTROMS AND DEGREES)
   CD    Cent   Atom    N1       Length/X        N2       Alpha/Y        N3        Beta/Z          J
 ---------------------------------------------------------------------------------------------------
      1      1  N 
      2      2  H        1   1.106512(     1)
      3         X        2   2.000000(     2)      1   90.000(     7)
      4      3  O        2   1.339025(     3)      3  125.324(     8)      1  180.000(    12)      0
      5      4  H        1   1.014083(     4)      2  107.818(     9)      3  130.518(    13)      0
      6      5  H        1   1.014422(     5)      2  109.364(    10)      3 -113.045(    14)      0
      7      6  H        4   0.965356(     6)      2  106.187(    11)      3  121.561(    15)      0
 ---------------------------------------------------------------------------------------------------
                         Z-Matrix orientation:                         
 ---------------------------------------------------------------------
 Center     Atomic      Atomic             Coordinates (Angstroms)
 Number     Number       Type             X           Y           Z
 ---------------------------------------------------------------------
      1          7           0        0.000000    0.000000    0.000000
      2          1           0        0.000000    0.000000    1.106512
      3         -1           0        2.000000    0.000000    1.106512
      4          8           0       -0.774231   -0.000000    2.199011
      5          1           0       -0.627238   -0.733925   -0.310308
      6          1           0       -0.374636    0.880661   -0.336357
      7          1           0       -1.325737    0.789957    2.138007
 ---------------------------------------------------------------------
                    Distance matrix (angstroms):
                    1          2          3          4          5
     1  N    0.000000
     2  H    1.106512   0.000000
     3  X    2.285688   2.000000   0.000000
     4  O    2.331326   1.339025   2.981596   0.000000
     5  H    1.014083   1.714483   3.073826   2.618575   0.000000
     6  H    1.014422   1.731412   2.914847   2.713546   1.634434
     7  H    2.636794   1.856231   3.570510   0.965356   2.967215
                    6          7
     6  H    0.000000
     7  H    2.652414   0.000000
 Stoichiometry    H4NO(2)
 Framework group  C1[X(H4NO)]
 Deg. of freedom    12
 Full point group                 C1      NOp   1
 Largest Abelian subgroup         C1      NOp   1
 Largest concise Abelian subgroup C1      NOp   1
                         Standard orientation:                         
 ---------------------------------------------------------------------
 Center     Atomic      Atomic             Coordinates (Angstroms)
 Number     Number       Type             X           Y           Z
 ---------------------------------------------------------------------
      1          7           0       -1.149646   -0.042497   -0.096274
      2          1           0       -0.095970   -0.171136   -0.408667
      3          8           0        1.179482   -0.092989   -0.008540
      4          1           0       -1.277836   -0.542743    0.776472
      5          1           0       -1.328355    0.938864    0.088239
      6          1           0        1.313825    0.816405    0.286193
 ---------------------------------------------------------------------
 Rotational constants (GHZ):         169.4123763          10.7840090          10.5489555
 Standard basis: CC-pVQZ (5D, 7F)
 There are   280 symmetry adapted cartesian basis functions of A   symmetry.
 There are   230 symmetry adapted basis functions of A   symmetry.
   230 basis functions,   326 primitive gaussians,   280 cartesian basis functions
    10 alpha electrons        9 beta electrons
       nuclear repulsion energy        37.0927474648 Hartrees.
 NAtoms=    6 NActive=    6 NUniq=    6 SFac= 1.00D+00 NAtFMM=   60 NAOKFM=F Big=F
 Integral buffers will be    131072 words long.
 Regular integral format.
 Two-electron integral symmetry is turned on.
 Nuclear repulsion after empirical dispersion term =       37.0914764134 Hartrees.
 One-electron integrals computed using PRISM.
 NBasis=   230 RedAO= T EigKep=  2.25D-04  NBF=   230
 NBsUse=   230 1.00D-06 EigRej= -1.00D+00 NBFU=   230
 Initial guess from the checkpoint file:  "/scratch/b49793/Gau-1093828.chk"
 B after Tr=    -0.000000   -0.000000   -0.000000
         Rot=    0.999983    0.005801   -0.000214   -0.000232 Ang=   0.67 deg.
 Initial guess <Sx>= 0.0000 <Sy>= 0.0000 <Sz>= 0.5000 <S**2>= 0.7687 S= 0.5093
 ExpMin= 8.99D-02 ExpMax= 6.14D+04 ExpMxC= 5.91D+02 IAcc=3 IRadAn=         7 AccDes= 0.00D+00
 Harris functional with IExCor=  419 and IRadAn=       7 diagonalized for initial guess.
 HarFok:  IExCor=  419 AccDes= 0.00D+00 IRadAn=         7 IDoV= 1 UseB2=F ITyADJ=14
 ICtDFT=  3500011 ScaDFX=  1.000000  1.000000  1.000000  1.000000
 FoFCou: FMM=F IPFlag=           0 FMFlag=      100000 FMFlg1=           0
         NFxFlg=           0 DoJE=T BraDBF=F KetDBF=T FulRan=T
         wScrn=  0.000000 ICntrl=       500 IOpCl=  0 I1Cent=   200000004 NGrid=           0
         NMat0=    1 NMatS0=      1 NMatT0=    0 NMatD0=    1 NMtDS0=    0 NMtDT0=    0
 Petite list used in FoFCou.
 Keep R1 and R2 ints in memory in canonical form, NReq=739231364.
 Requested convergence on RMS density matrix=1.00D-08 within 128 cycles.
 Requested convergence on MAX density matrix=1.00D-06.
 Requested convergence on             energy=1.00D-06.
 No special actions if energy rises.
 Integral accuracy reduced to 1.0D-05 until final iterations.
 Initial convergence to 1.0D-05 achieved.  Increase integral accuracy.
 SCF Done:  E(UB2PLYPD3) =  -132.106601482     A.U. after   15 cycles
            NFock= 15  Conv=0.48D-08     -V/T= 2.0025
 <Sx>= 0.0000 <Sy>= 0.0000 <Sz>= 0.5000 <S**2>= 0.7682 S= 0.5091
 <L.S>=  0.00000000000    
 Annihilation of the first spin contaminant:
 S**2 before annihilation     0.7682,   after     0.7501
 DoSCS=T DFT=T ScalE2(SS,OS)=  0.270000  0.270000
 ExpMin= 8.99D-02 ExpMax= 6.14D+04 ExpMxC= 5.91D+02 IAcc=3 IRadAn=         7 AccDes= 0.00D+00
 HarFok:  IExCor=  205 AccDes= 0.00D+00 IRadAn=         7 IDoV=-2 UseB2=F ITyADJ=14
 ICtDFT= 12500011 ScaDFX=  1.000000  1.000000  1.000000  1.000000
 Range of M.O.s used for correlation:     3   230
 NBasis=   230 NAE=    10 NBE=     9 NFC=     2 NFV=     0
 NROrb=    228 NOA=     8 NOB=     7 NVA=   220 NVB=   221

 **** Warning!!: The largest alpha MO coefficient is  0.18155624D+02


 **** Warning!!: The largest beta MO coefficient is  0.17999854D+02

 DoSCS=T DFT=T ScalE2(SS,OS)=  0.270000  0.270000
 Fully direct method using O(ONN) memory.
 JobTyp=2 Pass  1:  I=   3 to   6 NPSUse= 30 ParTrn=T ParDer=T DoDerP=T.
 JobTyp=2 Pass  2:  I=   7 to  10 NPSUse= 30 ParTrn=T ParDer=T DoDerP=T.
 JobTyp=3 Pass  1:  I=   3 to   6 NPSUse= 30 ParTrn=T ParDer=T DoDerP=T.
 JobTyp=3 Pass  2:  I=   7 to   9 NPSUse= 30 ParTrn=T ParDer=T DoDerP=T.
 Spin components of T(2) and E(2):
     alpha-alpha T2 =       0.2401591335D-01 E2=     -0.2081787739D-01
     alpha-beta  T2 =       0.1492117594D+00 E2=     -0.1250389235D+00
     beta-beta   T2 =       0.3024577481D-01 E2=     -0.1879746963D-01
 (S**2,0)=  0.76822D+00           (S**2,1)=  0.74186D+00
 Scaling Projection term by:   0.270000
 E(PUHF)=      -0.13211335280D+03        E(PMP2)=      -0.13227176485D+03
 E2(B2PLYPD3) =    -0.1646542705D+00 E(B2PLYPD3) =    -0.13227125575266D+03
          IDoAtm=111111
          Differentiating once with respect to electric field.
                with respect to dipole field.
          Differentiating once with respect to nuclear coordinates.
 Keep R1 and R2 ints in memory in canonical form, NReq=739235940.
          There are     1 degrees of freedom in the 1st order CPHF.  IDoFFX=0 NUNeed=     1.
 LinEq1:  Iter=  0 NonCon=     1 RMS=1.43D-03 Max=7.07D-02 NDo=     1
 AX will form     1 AO Fock derivatives at one time.
 LinEq1:  Iter=  1 NonCon=     1 RMS=3.82D-04 Max=4.98D-03 NDo=     1
 LinEq1:  Iter=  2 NonCon=     1 RMS=4.51D-04 Max=1.60D-02 NDo=     1
 LinEq1:  Iter=  3 NonCon=     1 RMS=1.39D-04 Max=2.40D-03 NDo=     1
 LinEq1:  Iter=  4 NonCon=     1 RMS=9.87D-05 Max=2.11D-03 NDo=     1
 LinEq1:  Iter=  5 NonCon=     1 RMS=3.43D-05 Max=1.32D-03 NDo=     1
 LinEq1:  Iter=  6 NonCon=     1 RMS=1.50D-05 Max=5.03D-04 NDo=     1
 LinEq1:  Iter=  7 NonCon=     1 RMS=4.28D-06 Max=8.88D-05 NDo=     1
 LinEq1:  Iter=  8 NonCon=     1 RMS=1.34D-06 Max=4.35D-05 NDo=     1
 LinEq1:  Iter=  9 NonCon=     1 RMS=3.97D-07 Max=7.71D-06 NDo=     1
 LinEq1:  Iter= 10 NonCon=     1 RMS=1.04D-07 Max=2.77D-06 NDo=     1
 LinEq1:  Iter= 11 NonCon=     1 RMS=2.80D-08 Max=4.68D-07 NDo=     1
 LinEq1:  Iter= 12 NonCon=     1 RMS=9.20D-09 Max=1.14D-07 NDo=     1
 LinEq1:  Iter= 13 NonCon=     1 RMS=1.96D-09 Max=2.86D-08 NDo=     1
 LinEq1:  Iter= 14 NonCon=     1 RMS=4.14D-10 Max=4.55D-09 NDo=     1
 LinEq1:  Iter= 15 NonCon=     1 RMS=9.97D-11 Max=1.30D-09 NDo=     1
 LinEq1:  Iter= 16 NonCon=     0 RMS=2.16D-11 Max=2.62D-10 NDo=     1
 Linear equations converged to 1.000D-10 1.000D-09 after    16 iterations.
 End of Minotr F.D. properties file   721 does not exist.
 End of Minotr F.D. properties file   722 does not exist.
 End of Minotr F.D. properties file   788 does not exist.
 Calling FoFJK, ICntrl=  10002127 FMM=F ISym2X=0 I1Cent= 0 IOpClX= 1 NMat=1 NMatS=1 NMatT=0.
 ***** Axes restored to original set *****
 -------------------------------------------------------------------
 Center     Atomic                   Forces (Hartrees/Bohr)
 Number     Number              X              Y              Z
 -------------------------------------------------------------------
      1        7           0.000002616    0.000013990   -0.000331976
      2        1           0.000347703   -0.000013816   -0.000178102
      3        8          -0.000340823   -0.000003083    0.000465597
      4        1           0.000002931    0.000022447    0.000025438
      5        1          -0.000000942   -0.000027604    0.000012440
      6        1          -0.000011486    0.000008065    0.000006603
 -------------------------------------------------------------------
 Cartesian Forces:  Max     0.000465597 RMS     0.000182344
 -----------------------------------------------------------------------------------------------
                       Internal Coordinate Forces (Hartree/Bohr or radian)
  Cent   Atom   N1       Length/X         N2         Alpha/Y        N3         Beta/Z          J
 -----------------------------------------------------------------------------------------------
      1  N 
      2  H        1   0.000294(     1)
         X        2   0.000000(     2)      1   0.000028(     7)
      3  O        2   0.000589(     3)      3   0.000028(     8)      1  -0.000001(    12)     0
      4  H        1  -0.000026(     4)      2  -0.000035(     9)      3   0.000023(    13)     0
      5  H        1  -0.000028(     5)      2  -0.000007(    10)      3  -0.000021(    14)     0
      6  H        4   0.000013(     6)      2   0.000016(    11)      3   0.000001(    15)     0
 -----------------------------------------------------------------------------------------------
 Internal  Forces:  Max     0.000588971 RMS     0.000171091

 GradGradGradGradGradGradGradGradGradGradGradGradGradGradGradGradGradGrad
 Berny optimization.
 Search for a saddle point.
 Step number   3 out of a maximum of   22
 All quantities printed in internal units (Hartrees-Bohrs-Radians)
 Swapping is turned off.
 Update second derivatives using D2CorN and points    1    2    3
 The second derivative matrix:
                         rnh1      rnh2a     rnh2b      roh      ahox
           rnh1         0.16376
           rnh2a       -0.00496   0.43946
           rnh2b       -0.00496  -0.00320   0.43782
           roh          0.00268   0.00033   0.00084   0.50986
           ahox        -0.01048   0.00411   0.00275   0.00150   0.04644
           ahnha        0.00493   0.00189  -0.01017   0.00024  -0.00018
           ahnhb        0.00442  -0.00920   0.00149   0.00120  -0.00149
           ahoh         0.00984  -0.00013   0.00102   0.00863  -0.00152
           b1a         -0.00301  -0.02089  -0.02318  -0.00101   0.00708
           b1b          0.00384   0.02211   0.02156   0.00070  -0.00503
           bp          -0.00435   0.00039   0.00022   0.00080   0.00476
           rts          0.12985   0.00211   0.00298  -0.00454  -0.02684
                         ahnha     ahnhb     ahoh       b1a       b1b
           ahnha        0.12645
           ahnhb        0.03656   0.12752
           ahoh        -0.00103  -0.00123   0.08267
           b1a          0.05874   0.05909   0.00001   0.11101
           b1b         -0.05903  -0.05533  -0.00598  -0.10357   0.10691
           bp          -0.00083   0.00363  -0.00739   0.00241  -0.00035
           rts          0.00688   0.00862   0.00636   0.00113  -0.00234
                          bp        rts
           bp           0.00481
           rts         -0.00802   0.05866
 ITU=  0  0  0
     Eigenvalues ---   -0.03311   0.00317   0.00542   0.04619   0.06738
     Eigenvalues ---    0.08378   0.09047   0.25538   0.29668   0.44218
     Eigenvalues ---    0.44773   0.51012
 Eigenvectors required to have negative eigenvalues:
                          rts      rnh1      ahox       bp        b1b
   1                    0.81819  -0.52818   0.20396   0.09089   0.02957
                         ahnhb     rnh2b     rnh2a     ahoh       roh
   1                   -0.01819  -0.01362  -0.01301   0.00922   0.00863
 RFO step:  Lambda0=3.346322021D-06 Lambda=-1.41192643D-06.
 Linear search not attempted -- option 19 set.
 Variable       Old X    -DE/DX   Delta X   Delta X   Delta X     New X
                                 (Linear)    (Quad)   (Total)
   rnh1       2.09101   0.00029   0.00000   0.00708   0.00708   2.09808
  rnh2a       1.91634  -0.00003   0.00000   0.00014   0.00014   1.91647
  rnh2b       1.91698  -0.00003   0.00000   0.00012   0.00012   1.91710
   roh        1.82426   0.00001   0.00000  -0.00005  -0.00005   1.82421
   ahox       2.18732   0.00003   0.00000  -0.00143  -0.00143   2.18589
  ahnha       1.88178  -0.00004   0.00000  -0.00077  -0.00077   1.88101
  ahnhb       1.90877  -0.00001   0.00000  -0.00002  -0.00002   1.90875
   ahoh       1.85331   0.00002   0.00000  -0.00065  -0.00065   1.85265
   b1a        2.27798   0.00002   0.00000  -0.00004  -0.00004   2.27794
   b1b       -1.97301  -0.00002   0.00000  -0.00125  -0.00125  -1.97426
    bp        2.12164   0.00000   0.00000  -0.00454  -0.00454   2.11710
   rts        2.53039   0.00059   0.00000  -0.00680  -0.00680   2.52359
         Item               Value     Threshold  Converged?
 Maximum Force            0.000589     0.000450     NO 
 RMS     Force            0.000191     0.000300     YES
 Maximum Displacement     0.007078     0.001800     NO 
 RMS     Displacement     0.003184     0.001200     NO 
 Predicted change in Energy= 9.673669D-07
 GradGradGradGradGradGradGradGradGradGradGradGradGradGradGradGradGradGrad

 ---------------------------------------------------------------------------------------------------
                            Z-MATRIX (ANGSTROMS AND DEGREES)
   CD    Cent   Atom    N1       Length/X        N2       Alpha/Y        N3        Beta/Z          J
 ---------------------------------------------------------------------------------------------------
      1      1  N 
      2      2  H        1   1.110258(     1)
      3         X        2   2.000000(     2)      1   90.000(     7)
      4      3  O        2   1.335425(     3)      3  125.242(     8)      1  180.000(    12)      0
      5      4  H        1   1.014155(     4)      2  107.774(     9)      3  130.516(    13)      0
      6      5  H        1   1.014485(     5)      2  109.363(    10)      3 -113.117(    14)      0
      7      6  H        4   0.965330(     6)      2  106.149(    11)      3  121.301(    15)      0
 ---------------------------------------------------------------------------------------------------
                         Z-Matrix orientation:                         
 ---------------------------------------------------------------------
 Center     Atomic      Atomic             Coordinates (Angstroms)
 Number     Number       Type             X           Y           Z
 ---------------------------------------------------------------------
      1          7           0        0.000000    0.000000    0.000000
      2          1           0        0.000000    0.000000    1.110258
      3         -1           0        2.000000    0.000000    1.110258
      4          8           0       -0.770590   -0.000000    2.200923
      5          1           0       -0.627408   -0.734184   -0.309585
      6          1           0       -0.375761    0.880255   -0.336355
      7          1           0       -1.318959    0.792281    2.142235
 ---------------------------------------------------------------------
                    Distance matrix (angstroms):
                    1          2          3          4          5
     1  N    0.000000
     2  H    1.110258   0.000000
     3  X    2.287503   2.000000   0.000000
     4  O    2.331924   1.335425   2.977536   0.000000
     5  H    1.014155   1.717155   3.075427   2.619576   0.000000
     6  H    1.014485   1.734570   2.917495   2.714502   1.634153
     7  H    2.637525   1.852658   3.564853   0.965330   2.969808
                    6          7
     6  H    0.000000
     7  H    2.653446   0.000000
 Stoichiometry    H4NO(2)
 Framework group  C1[X(H4NO)]
 Deg. of freedom    12
 Full point group                 C1      NOp   1
 Largest Abelian subgroup         C1      NOp   1
 Largest concise Abelian subgroup C1      NOp   1
                         Standard orientation:                         
 ---------------------------------------------------------------------
 Center     Atomic      Atomic             Coordinates (Angstroms)
 Number     Number       Type             X           Y           Z
 ---------------------------------------------------------------------
      1          7           0       -1.150090   -0.042225   -0.096613
      2          1           0       -0.092170   -0.170097   -0.408265
      3          8           0        1.179604   -0.093094   -0.008239
      4          1           0       -1.279064   -0.544884    0.774713
      5          1           0       -1.329266    0.938524    0.091021
      6          1           0        1.314298    0.816789    0.284732
 ---------------------------------------------------------------------
 Rotational constants (GHZ):         169.4575706          10.7787854          10.5429209
 Standard basis: CC-pVQZ (5D, 7F)
 There are   280 symmetry adapted cartesian basis functions of A   symmetry.
 There are   230 symmetry adapted basis functions of A   symmetry.
   230 basis functions,   326 primitive gaussians,   280 cartesian basis functions
    10 alpha electrons        9 beta electrons
       nuclear repulsion energy        37.0841283404 Hartrees.
 NAtoms=    6 NActive=    6 NUniq=    6 SFac= 1.00D+00 NAtFMM=   60 NAOKFM=F Big=F
 Integral buffers will be    131072 words long.
 Regular integral format.
 Two-electron integral symmetry is turned on.
 Nuclear repulsion after empirical dispersion term =       37.0828581983 Hartrees.
 One-electron integrals computed using PRISM.
 NBasis=   230 RedAO= T EigKep=  2.26D-04  NBF=   230
 NBsUse=   230 1.00D-06 EigRej= -1.00D+00 NBFU=   230
 Initial guess from the checkpoint file:  "/scratch/b49793/Gau-1093828.chk"
[...]
 06019,-0.00050592,-0.00003850,0.00045977,-0.04609882,-0.04156440,0.031
 07170,0.02030188,-0.01076373,0.00126116,0.00289036,0.00670917,0.000581
 21,-0.00042861,-0.00458066,-0.03186317,-0.02130881,0.00959616,-0.00059
 248,-0.00561537,0.00705870,0.00017256,-0.00019187,-0.00188540,-0.00037
 500,-0.00003618,0.00157825,-0.00018979,0.00090323,-0.00139650,0.000992
 25,-0.00364134,0.01239183,-0.00527758,0.00012960,-0.00024000,-0.000603
 54,0.00037880,0.00021260,-0.00026945,-0.00153513,-0.00095572,-0.001067
 30,0.00479782,-0.01167416,0.00553736,-0.00625636,-0.00013244,0.0006539
 8,-0.00197417,0.00260652,0.00026199,0.00013683,-0.00156269,-0.00072271
 ,0.00084884,-0.00076730,-0.00585991,0.00717020,0.00058145,0.00013868,0
 .00059757,0.00017436,0.00074517,-0.00110449,-0.00150988,0.01048407,-0.
 02527110,-0.00040075,-0.00000245,-0.00002135,0.00034560,-0.00000754,-0
 .00012975,0.00012928,-0.01135793,-0.00035675,-0.00016017,0.00023762,-0
 .00028505,0.00020717,0.00099290,-0.02576434,0.03075511,-0.00464210,0.0
 0033466,-0.00010252,-0.00038751,0.00014238,0.00026545,0.00007467,0.025
 92911,-0.03096504,0.00093059,0.00023032,-0.00230691,-0.00189701,0.0008
 1279,0.00229170,-0.00053044,-0.00450960,-0.01475180,-0.00026939,-0.000
 30559,-0.00019365,0.00050486,0.00004767,-0.00072553,0.00126139,0.00372
 442,0.01568619,-0.05114018,-0.01223096,-0.36944937,-0.15788468,0.05781
 807,-0.00864137,-0.00878581,0.00008642,0.00205491,0.00109577,-0.000275
 96,-0.01606031,-0.00098900,0.00114955,0.02619100,0.00786482,-0.0050189
 9,0.08671869,0.00534032,0.00346436,-0.10197218,0.00022598,-0.00083011,
 -0.00433257,0.00701883,0.00024684,-0.00851620,-0.06281008,0.00025339,-
 0.00215255,-0.00060205,-0.00130810,-0.00041070,-0.00027133,0.13112137,
 -0.15827333,-0.00050126,0.00229561,0.00497199,-0.01083864,-0.00200166,
 0.01003855,-0.01110495,0.01044970,0.06241752,0.06608062,0.13491149,0.0
 7739142,-0.00082489,-0.00106425,-0.00213267,-0.00037553,-0.00042924,0.
 00097697,-0.06087254,0.12569027,0.12972005,0.05030965,-0.00441563,-0.0
 0314175,-0.00041171,0.00032619,0.00130642,-0.00030928,-0.13194217,-0.1
 4623499,0.07400137,0.05314804,-0.03779191,0.00375663,0.00622677,0.0019
 2357,0.00061071,-0.00248819,-0.00163580,-0.08067128,-0.05231554,0.0457
 2452,-0.00610391,-0.12243891,0.08276227,0.00055242,0.00064041,-0.00371
 749,-0.00085568,0.00012292,0.00202674,-0.00382489,0.01064778,0.0023545
 6,0.00974279,-0.11346268,0.25592701,-0.10680841,0.00336193,-0.00488283
 ,0.00259124,0.00037868,0.00214903,-0.00164390,-0.00154196,0.01855282,-
 0.00520653,0.11091405,-0.27146594,0.07669213,-0.10793375,-0.04493749,0
 .00148899,-0.00784714,0.00366552,0.00107132,0.00222550,-0.00203298,0.0
 0433044,0.00292148,-0.00784949,-0.08428027,0.11070189,0.05310321,-0.00
 027672,0.00050206,0.00000865,0.00094367,-0.00069659,0.00116122,0.05679
 648,-0.12976035,0.01944114,-0.00018277,-0.00030644,-0.00005198,0.00048
 926,0.00034998,0.00069740,-0.05776993,0.00002594,0.00201515,0.00027174
 ,0.00112583,-0.00169541,-0.00035357,-0.13124296,0.15738113,-0.00879047
 ,0.00006613,-0.00020256,0.00063546,0.00011374,-0.00028009,-0.00006799,
 0.12991134,-0.15721823,-0.00017238,-0.00030898,-0.00031992,-0.00180222
 ,0.00114667,-0.00037415,0.02227169,-0.00931363,-0.07375926,0.00010513,
 -0.00019460,-0.00037090,0.00085421,0.00036571,-0.00194878,-0.02125642,
 0.00830483,0.07677300,-0.03569018,-0.00974238,-0.10262969,-0.02744534,
 0.01476413,0.06168262,0.00159008,-0.00030736,-0.00039324,0.00651043,0.
 00082791,0.00496995,0.00192929,-0.00987574,-0.01582544,0.00522027,-0.0
 0219413,-0.03474156,-0.01593620,0.01129979,0.00909167,0.00335147,-0.00
 204738,-0.00054050,0.00118576,0.00743974,-0.00822777,-0.22829456,0.001
 98493,-0.00048264,-0.00715805,-0.00762994,0.02041277,0.00867338,0.5460
 0983,-0.69750794,-0.00794583,0.00277831,0.00234354,0.01408757,-0.02277
 242,0.02179986,-0.10687551,0.04947946,0.25881181,0.02570097,0.04069416
 ,0.01799918,-0.00027993,-0.00048796,-0.00045612,-0.00014685,-0.0025441
 4,0.00141276,-0.02390457,0.03523735,0.03570839,0.01517431,0.00000118,-
 0.00024572,0.00060794,0.00036564,0.00007626,-0.00156086,-0.03791099,-0
 .04021095,0.01479363,0.01534501,-0.01284234,0.00162123,0.00132997,0.00
 040857,-0.00039639,0.00006399,-0.00123051,-0.01817643,-0.01513729,0.01
 651533,0.00410260,-0.03141764,0.01632952,0.00139273,0.00126674,-0.0042
 4573,-0.00048822,0.00045374,0.00107774,-0.00089389,0.00226360,0.000478
 55,-0.00319729,-0.02806133,0.06406849,-0.03280157,0.00127632,-0.002929
 85,0.00397105,0.00104995,0.00007799,-0.00006662,-0.00127005,0.00454796
 ,-0.00080503,0.02762809,-0.06596542,0.01455196,-0.02950074,-0.01469362
 ,-0.00143103,-0.00232552,0.00815338,0.00210588,0.00006995,-0.00306565,
 0.00017344,0.00131367,-0.00197622,-0.01502653,0.02935660,0.01254968,0.
 00094505,0.00282059,-0.00594962,-0.01039906,0.00082931,0.02364556,0.22
 439238,-0.53827443,0.09824327,-0.00047572,0.00004322,0.00167941,-0.000
 91592,-0.00062299,-0.00037372,-0.21354673,-0.00024648,-0.00163450,0.00
 809189,0.01653553,-0.00638171,-0.02235804,-0.55281779,0.67742355,-0.02
 785787,0.00151898,0.00012407,-0.00079664,-0.00019453,0.00020084,0.0010
 8604,0.53520429,-0.66973225,0.00082532,-0.00119258,-0.00174865,0.00205
 166,0.01053888,-0.00471193,0.11393430,-0.05112873,-0.27865904,-0.00095
 282,-0.00039776,-0.00087483,0.00138646,0.00034557,-0.00096756,-0.11724
 491,0.04183462,0.28696201,-0.26458229,-0.05997396,-0.57892883,-0.20589
 340,0.04353719,0.22547522,0.05991279,-0.00666176,-0.09086864,-0.047973
 35,-0.00340463,0.03022981,0.01067314,0.00262277,-0.02906358,-0.0759780
 1,0.01169289,-0.11376175,0.05645022,-0.00827582,0.13882723,-0.01021648
 ,0.00202512,-0.00442161,0.00299453,-0.00057132,0.01404983,0.00215948,-
 0.00329455,-0.00396544,0.00117174,0.00104428,-0.00014358,-0.00289679,0
 .00369016,-0.00180366,0.01867610,-0.00199079,0.00413991,-0.00709680,0.
 00198474,-0.01230509,-0.00368320,-0.00041001,0.00875972,0.18747026,0.2
 9123620,0.16254693,-0.00918542,-0.00546711,0.00169536,0.00136860,0.001
 95160,-0.00447242,-0.16812016,0.25403388,0.20615355,0.06441572,0.00195
 726,0.00086134,-0.00646538,-0.00081279,0.00038862,0.00232048,-0.270166
 74,-0.19517127,0.14454360,0.06299481,-0.06370033,0.02271923,0.00737118
 ,-0.00588176,-0.00386395,-0.00105321,0.00120955,-0.15205465,-0.0668666
 6,0.06070480,0.02930779,-0.22732227,0.13679637,-0.00783515,0.00723232,
 0.00561734,0.00174644,0.00170665,-0.00582607,-0.01159163,0.01535725,-0
 .01074669,-0.01217410,-0.18931569,0.34704263,-0.11884998,0.00210474,-0
 .00219321,0.00358437,-0.00035460,0.00109739,-0.00110872,-0.01665130,-0
 .01244073,-0.00252893,0.20414850,-0.33366754,0.12193736,-0.11519737,-0
 .05267108,0.01872607,-0.01166350,-0.00638906,-0.00297648,0.00146749,0.
 00137412,-0.00909310,0.00685827,0.00771646,-0.12766115,0.11828126,0.05
 015709,-0.00189208,0.00069667,0.00184036,0.00208660,-0.00041202,-0.001
 83474,0.00194742,-0.00509814,0.00240238,0.00005835,-0.00036886,-0.0005
 9754,0.00054665,0.00006835,-0.00093269,-0.00274694,0.00195495,-0.00053
 173,-0.00094782,-0.00106729,0.00030922,0.00236072,-0.00397657,0.004426
 67,-0.00079570,-0.00090266,0.00020847,0.00008281,-0.00112244,0.0001614
 6,0.00025385,0.00511400,-0.00457409,-0.00328566,-0.00103673,0.00051802
 ,0.00006992,-0.00008974,-0.00048957,0.00089541,0.00172077,-0.00317821,
 0.00137789,-0.00026243,-0.00004872,0.00182020,0.00062198,-0.00018753,-
 0.00087776,-0.00095385,0.00338601,-0.07866227,-0.06576858,-0.24449306,
 -0.05043035,-0.06368260,-0.34727852,0.01108138,0.01075146,0.01520050,-
 0.02789012,-0.00004022,0.00908797,0.04304394,-0.00275860,0.02401298,0.
 03962057,0.04399067,0.28408452,0.00251413,-0.02715786,-0.22651557,0.00
 001659,0.00338756,-0.02106536,0.02789304,0.01297599,-0.01839287,-0.037
 27595,0.01092238,0.04138340,-0.00389208,-0.00408305,-0.02215973,-0.013
 46910,-0.00553534,-0.04255657,-0.00183162,-0.01285245,0.03802813,-0.03
 273689,-0.01318651,-0.01909986,0.04245655,0.02615913,-0.02374408,0.053
 75410,0.07952157,0.04150846,0.00117447,0.00150868,-0.02985764,-0.00337
 626,-0.00635053,0.00355034,-0.05367781,0.07987978,0.10701723,0.0452888
 5,-0.00132434,-0.00654497,-0.02293863,-0.00489389,-0.00015728,0.008946
 83,-0.07401257,-0.10213834,0.00605770,-0.00827974,0.00954915,0.0142149
 3,0.02739254,-0.01942418,-0.00214043,0.01335874,-0.00053467,-0.0109954
 1,-0.03000599,0.00942328,0.01808736,-0.02530397,0.01828402,-0.00359778
 ,-0.00393504,-0.01195785,0.00085099,0.00561166,-0.00293476,0.00062006,
 0.00066884,-0.00501474,-0.01616251,-0.02431078,0.08651963,-0.02293483,
 -0.00175371,-0.00457051,0.01956483,0.00304931,-0.00034655,-0.00765874,
 -0.00009399,0.00101277,-0.00258993,0.02256447,-0.08202882,0.00484387,0
 .02965108,0.01596724,0.00472042,-0.03155878,-0.02131449,-0.00509233,-0
 .00915198,0.00736292,-0.00369229,-0.00134557,-0.00183358,-0.00053592,0
 .01305098,0.00268025,-0.00427717,-0.00258804,-0.00349727,-0.00866098,-
 0.00775081,0.01807365,0.01189159,-0.00056512,-0.00850362,0.00150544,-0
 .00031782,-0.00212205,0.00020188,0.00054469,-0.00024375,-0.00066076,-0
 .00068258,0.00048484,0.00217672,-0.00083176,0.00017426,0.00001009,-0.0
 0898363,0.02383673,-0.00140826,-0.00057316,0.00081059,0.00012437,0.000
 39405,-0.00058653,-0.00064572,0.01067709,-0.02471989,0.00173982,0.0111
 7306,-0.00035052,-0.00391309,0.00146667,0.00226958,0.00423443,-0.01300
 472,-0.00201244,-0.00051346,0.00005450,0.00282000,0.00215925,0.0005676
 9,-0.00286234,-0.00370696,-0.00025720,0.00013573,-0.31815346,-0.018628
 28,-0.54952412,-0.23014301,0.04217859,0.07987991,0.02860822,0.00310584
 ,0.01494794,-0.02834572,0.00595857,0.06266044,0.02228018,-0.00094090,-
 0.04230589,0.02458394,0.01104384,-0.20841144,-0.04705116,-0.01590253,0
 .29697811,0.00318758,-0.00056420,-0.00845129,-0.00924181,-0.00095119,0
 .03544201,0.01100452,-0.00108377,-0.00203323,0.00035140,0.00082961,-0.
 00284942,0.00323439,0.00227853,0.00283308,-0.00250460,0.00289380,0.019
 96583,0.01520546,-0.00039338,-0.06973636,-0.01906120,-0.00201902,0.037
 19818,0.20366307,0.24652427,0.12497965,0.00553825,0.00163955,-0.006616
 85,-0.00201810,-0.00026537,0.00262571,-0.19044509,0.17134348,0.1660525
 1,0.10603977,0.00158234,-0.00840486,-0.00916041,-0.00215845,0.00051745
 ,0.00399014,-0.20815964,-0.14265953,0.12764984,0.15431924,0.05193948,0
 .00807080,0.00244333,-0.01237930,-0.00519080,-0.00142445,0.00740277,-0
 .10739210,-0.13353001,-0.03415585,0.08240492,-0.23036480,0.09930184,0.
 00449484,-0.00698231,-0.00816318,-0.00280089,0.00001095,0.00342623,-0.
 01659176,0.03763429,-0.02287260,-0.06722975,-0.15751161,0.32247285,-0.
 17090411,-0.00491928,-0.00896754,0.01313941,0.00251291,0.00124345,-0.0
 0560434,-0.03981480,-0.01575372,-0.02265084,0.19949955,-0.29872922,0.0
 8114261,-0.21042072,0.05863182,0.00953850,-0.00821031,-0.01204031,-0.0
 0536340,-0.00032039,0.00712261,-0.01331724,0.03257016,-0.01241135,-0.0
 7167332,0.18574135,-0.04115095,0.00028967,-0.00007282,-0.00063512,-0.0
 0105378,0.00127627,0.00180524,-0.00013130,-0.00176995,0.00030840,-0.00
 014636,-0.00024203,-0.00026514,-0.00027735,0.00023323,-0.00032715,0.00
 131912,-0.00007839,0.00037155,0.00005417,0.00034239,-0.00013272,-0.002
 35470,-0.00111760,0.00028869,0.00113279,0.00007598,0.00024815,0.000842
 72,0.00020232,-0.00026582,0.00063993,0.00057530,-0.00050985,-0.0007287
 7,-0.00001475,-0.00200560,-0.00071153,-0.00021728,0.00558931,0.0026246
 7,0.00017807,-0.00195302,-0.00027916,0.00009034,-0.00039574,-0.0000189
 6,0.00027852,-0.00015181,-0.00088624,-0.00031491,-0.00108313,-0.201306
 57,-0.00529728,-0.24845497,-0.43391316,0.09556888,1.28291074,0.1893376
 8,0.00873759,0.57498165,-0.21543031,0.01199107,0.20485523,-0.09627976,
 0.02123624,-0.18989193,0.39054142,-0.08986303,-1.53058664,-0.68510386,
 0.08749379,2.08580900,-0.00263463,-0.00413913,-0.14561544,-0.00576130,
 -0.01924946,0.27861731,0.00988221,-0.01499814,-0.00110968,-0.00692173,
 -0.03196342,0.01239232,0.03861478,0.03746422,-0.00546814,0.04431536,-0
 .00544551,0.20899803,0.12348926,-0.01183102,-0.42797373,-0.13809459,-0
 .01044013,0.11532024,0.01083935,0.00708886,0.00711620,0.01066738,0.003
 30773,-0.00255441,-0.00261027,0.00006649,-0.00568779,-0.01456888,0.022
 89020,0.01646582,0.01287571,0.00105790,-0.01398373,-0.05176508,-0.0158
 9514,-0.00008591,0.02228526,-0.00803074,-0.00403844,0.00194204,-0.0016
 8713,0.02034944,0.00764302,-0.01767895,-0.06404859,-0.01163699,-0.0080
 1390,0.03481769,-0.00151780,0.01994321,0.01181470,0.00369516,-0.005846
 35,0.00238768,0.01297338,-0.01272756,0.00997255,-0.00103792,0.00675796
 ,-0.01396102,-0.00414314,0.00214221,0.00466150,-0.01184025,-0.02080771
 ,0.02929197,-0.01389284,-0.00537661,-0.01400323,0.04689803,0.01465210,
 0.00126317,-0.01678547,-0.00127781,-0.00059909,0.00278920,0.01122621,-
 0.01437380,0.00358143,0.00049698,0.02256319,0.01101790,0.02580295,-0.0
 7183774,-0.01031646,-0.00849373,0.03779412,0.00281996,-0.00240470,-0.0
 0053076,-0.00617989,-0.02044378,0.01552817,0.00006901,-0.00054369,-0.0
 0495691,0.00821317,-0.00455802,0.00852699,0.00216191,0.00267289,-0.010
 06122,-0.00018444,-0.00216442,-0.00109177,0.00035277,0.00158382,-0.000
 92294,-0.01061242,0.00622186,-0.00104839,0.00864974,0.00630830,0.00063
 135,-0.03137849,-0.01283260,-0.00699177,0.02221686,-0.00115453,0.00224
 135,0.00464757,-0.00155246,-0.00157902,0.00504228,0.00300943,0.0067464
 8,-0.00646708,0.00092981,-0.00423478,-0.03202796,0.01249299,0.00863770
 ,0.02704618,-0.00474529,0.03104366,-0.00017616,-0.00093440,-0.00240249
 ,0.00311918,0.00143486,-0.00351699,0.00850584,-0.00917796,-0.02952710,
 0.47263440,0.20514535,2.79552163,0.85304050,-0.29623047,-0.42121705,-0
 .00374182,0.00063394,0.00734805,-0.00586305,0.00082387,-0.00488112,-0.
 00230327,-0.00091327,-0.01076452,0.00789506,-0.00116637,0.00152070,-0.
 00448620,0.00115909,0.00354994,0.00231806,-0.00046077,0.00223992,0.001
 62830,-0.00000333,-0.00427528,-0.00270471,0.00010611,0.00036588,0.0004
 8171,0.00037043,0.00070626,-0.00046249,-0.00079819,0.00063308,-0.00312
 366,0.00071064,-0.00360567,-0.00301104,0.00028316,0.00856390,0.0046998
 1,-0.00048295,-0.00755497,-0.56846933,-1.21474579,-0.48464736,0.004613
 61,0.00283619,0.00165676,-0.00042879,0.00013814,0.00031301,0.54167230,
 -1.15876063,-0.96871677,-0.54054537,0.00132312,0.00631506,0.00869907,0
 .00074537,-0.00081910,-0.00029964,1.19155701,0.97791626,-0.48713277,-0
 .56225926,0.21928694,-0.00023633,-0.00224197,-0.00642950,-0.00129321,-
 0.00018012,0.00149911,0.48259525,0.54959691,-0.23648727,0.09702851,1.0
 0959492,-0.37804788,0.00329396,-0.00258838,-0.00034312,-0.00053310,-0.
 00054113,0.00062061,0.02269305,-0.03494043,0.00614490,-0.12240029,0.95
 321772,-1.82243631,0.83879865,-0.00120755,0.00848142,-0.00876241,-0.00
 052849,0.00004007,-0.00034720,0.02004497,-0.01488206,0.01521487,-0.971
 85147,1.82936268,-0.37039085,0.85893957,0.20413013,0.00023232,0.002978
 83,-0.00752635,-0.00148766,0.00037213,0.00138782,-0.00007269,-0.016846
 95,0.02220667,0.37190064,-0.84541077,-0.22083722,0.00023017,-0.0001676
 6,0.00006676,0.00006899,-0.00015508,-0.00044723,-0.00027976,0.00072464
 ,0.00050127,-0.00008084,0.00007556,-0.00007784,-0.00008214,0.00032482,
 -0.00018177,0.00014358,-0.00053242,0.00014668,-0.00020125,-0.00020668,
 0.00014290,0.00053312,0.00104540,-0.00092618,0.00013599,0.00016948,0.0
 0018662,-0.00013043,0.00032649,-0.00056581,-0.00003282,-0.00080228,0.0
 0101579,-0.00028829,0.00000588,-0.00011506,0.00015321,0.00012415,0.000
 32132,0.00011641,0.00027172,-0.00029017,0.00015502,-0.00060401,-0.0000
 7595,-0.00027516,0.00050686,0.00063894,0.00013881,-0.00030461,-0.00047
 907,0.68080589,0.52021908,2.64320777,1.03557653,-0.10600998,-0.4590183
 7,-0.01394066,-0.00061192,0.00183774,0.00109089,-0.00100829,-0.0154816
 8,0.00025657,-0.00058256,-0.00345844,-0.00844492,0.00031867,0.02222413
 ,0.00465204,-0.00002412,-0.01923159,0.00078389,0.00004846,0.00134690,0
 .00107239,0.00012919,-0.00363459,-0.00173809,0.00092082,0.00135799,0.0
 0052963,0.00037352,0.00180644,-0.00173541,-0.00096484,-0.00078344,-0.0
 0214378,0.00031504,-0.00284783,-0.00145206,-0.00047542,0.01137434,0.00
 353705,0.00066570,-0.00906619,-0.73589592,-1.47063597,-0.65484947,0.00
 690511,0.00532957,0.00494913,-0.00015211,-0.00090660,-0.00040504,0.732
 82476,-1.45920069,-1.05753828,-0.71464676,0.00188050,0.00812250,0.0045
 6225,-0.00021278,-0.00084771,-0.00027234,1.45862326,1.04292219,-0.6468
 2005,-0.71035833,0.26232484,-0.00337993,-0.00200765,-0.00725773,-0.000
 52883,-0.00039824,0.00047123,0.65071539,0.71122193,-0.24872407,0.06783
 507,0.95122209,-0.38432276,0.00472200,-0.00370832,0.00296801,0.0002426
 2,-0.00006085,0.00039033,-0.00368880,-0.00127941,0.00003085,-0.0686679
 0,0.93985827,-1.57177034,0.82022994,-0.00088230,0.00893525,-0.00427703
 ,0.00012345,-0.00101195,0.00009694,0.00725672,0.00745690,0.00176933,-0
 .94653734,1.55664480,-0.37839728,0.81545091,0.17706383,-0.00194135,0.0
 0186591,-0.00640341,-0.00054226,0.00114765,-0.00025310,-0.00016780,-0.
 00060654,-0.00672824,0.38126605,-0.81771724,-0.16459031,0.00041173,-0.
 00024173,0.00041106,0.00015028,-0.00015959,-0.00048966,-0.00020868,0.0
 0063795,0.00007349,0.00000696,0.00018913,-0.00001743,-0.00044299,0.000
 18120,-0.00021737,0.00008271,-0.00078919,0.00022453,-0.00035940,-0.000
 17724,0.00007593,0.00115564,0.00087653,-0.00052131,-0.00032993,0.00033
 302,-0.00011560,-0.00022704,0.00036384,-0.00025467,-0.00014069,-0.0006
 0696,0.00059112,0.00022950,0.00028368,0.00025338,0.00028355,0.00038471
 ,-0.00070573,-0.00017827,-0.00020934,0.00032157,-0.00024221,-0.0002585
 4,-0.00008604,-0.00033247,-0.00010194,0.00091123,0.00023990,-0.0000985
 8,-0.00069441,0.00101161,-0.00040986,-0.00163472,0.00032630,0.00048791
 ,0.00001903,0.00108300,0.00057268,-0.00297005,-0.00225453,0.00037684,0
 .00193254,-0.00051222,0.00087300,-0.00142426,-0.00128723,-0.00080905,0
 .00039321,0.00343649,-0.00061463,0.00670361,0.00081166,-0.00002788,0.0
 0246184,0.00195807,-0.00126906,-0.00771237,1.11884698,-0.00126587,0.00
 309892,-0.00187077,0.00099570,-0.00928565,0.00898729,-3.72870444,4.078
 51417,-0.00012443,-0.00041794,0.00037339,-0.00735691,0.00583485,-0.004
 52136,0.26308830,-0.40144472,-1.36240023,-0.00063725,0.00058020,0.0005
 5415,0.00041423,-0.00074090,-0.00096133,-0.00023486,-0.00040646,0.0003
 2141,-0.00005937,-0.00070604,-0.00054450,-0.00010934,0.00027428,0.0002
 9989,-0.00047093,0.00016407,-0.00032266,0.00017616,0.00051057,0.000115
 45,-0.00012888,-0.00120953,-0.00106540,-0.00016700,0.00077874,0.000621
 58,0.00035903,0.00017159,0.00028122,0.00047741,0.00036974,-0.00059674,
 -0.00105043,-0.00005188,0.00075038,0.00082371,0.00067753,-0.00110161,-
 0.00064963,-0.00065375,0.00177675,0.00032781,0.00019184,-0.00020390,0.
 00023535,0.00112883,-0.00113331,0.00023127,-0.00042479,0.00040183,0.00
 053558,-0.00042891,0.00014268,0.00001983,-0.00037638,0.00025237,0.0001
 6348,-0.00073945,0.00100517,-0.00008042,0.00196597,-0.00107972,-0.0005
 8302,-0.00060971,0.00086542,0.00017927,-0.00092745,-0.00019748,-0.0001
 7216,-0.00025078,0.00048492,0.00071663,-0.00053755,-0.00161062,-0.0012
 1860,-0.00066326,-0.00112262,-0.00202448,0.00008260,0.00762603,-1.1207
 3222,3.73003481,-0.25770513,0.00018944,-0.00043471,-0.00033665,0.00031
 319,0.00084070,-0.00006029,1.12347268,0.00087611,-0.00171894,0.0017731
 5,-0.00229087,0.00807565,-0.00762826,3.73026622,-4.07214745,0.39583182
 ,0.00043296,0.00019945,-0.00027402,0.00057570,-0.00066875,0.00035953,-
 3.72986013,4.06626004,0.00129465,-0.00001735,0.00135949,0.00764049,-0.
 00487703,-0.00406246,-0.25837608,0.39508406,1.36646448,-0.00021948,0.0
 0028515,0.00027443,-0.00193824,-0.00041262,0.00153748,0.25159866,-0.39
 006221,-1.36557342\\@
 The archive entry for this job was punched.


 WAR ES EIN GOTT DER DIESE ZEICHEN SCHRIEB?
          - LUDWIG BOLTZMANN, QUOTING GOETHE, ABOUT MAXWELL'S EQUATIONS.
 Job cpu time:       3 days  8 hours  5 minutes  6.3 seconds.
 Elapsed time:       0 days  3 hours 21 minutes 12.8 seconds.
 File lengths (MBytes):  RWF=  13367 Int=      0 D2E=      0 Chk=     50 Scr=      1
 Normal termination of Gaussian 16 at Wed Jul 23 17:19:59 2025.
