Frequency calc for equilibrium dimer structure                          
Freq      RMP2-FC                                                     Aug-CC-pVTZ         
Number of atoms                            I                6
Info1-9                                    I   N=           9
          41          37        1002           0           0         100
           6           2           1
Charge                                     I                0
Multiplicity                               I                1
Number of electrons                        I               20
Number of alpha electrons                  I               10
Number of beta electrons                   I               10
Number of basis functions                  I              184
Number of independent functions            I              184
Number of point charges in /Mol/           I                0
Number of translation vectors              I                0
Atomic numbers                             I   N=           6
           1           8           1           8           1           1
Nuclear charges                            R   N=           6
  1.00000000E+00  8.00000000E+00  1.00000000E+00  8.00000000E+00  1.00000000E+00
  1.00000000E+00
Current cartesian coordinates              R   N=          18
  1.70054474E+00  3.49792875E+00  3.30872245E-24 -4.03972677E-04  2.86484978E+00
 -8.27180613E-25  1.88506628E-01  1.04424375E+00  4.13590306E-25 -4.03972677E-04
 -2.62726516E+00  1.65436123E-24 -9.41293905E-01 -3.22142476E+00  1.43814291E+00
 -9.41293905E-01 -3.22142476E+00 -1.43814291E+00
Force Field                                I                0
Int Atom Types                             I   N=           6
           0           0           0           0           0           0
MM charges                                 R   N=           6
  0.00000000E+00  0.00000000E+00  0.00000000E+00  0.00000000E+00  0.00000000E+00
  0.00000000E+00
Integer atomic weights                     I   N=           6
           1          16           1          16           1           1
Real atomic weights                        R   N=           6
  1.00782504E+00  1.59949146E+01  1.00782504E+00  1.59949146E+01  1.00782504E+00
  1.00782504E+00
Atom fragment info                         I   N=           6
           0           0           0           0           0           0
Atom residue num                           I   N=           6
           0           0           0           0           0           0
Nuclear spins                              I   N=           6
           1           0           1           0           1           1
Nuclear ZEff                               R   N=           6
 -1.00000000E+00 -5.60000000E+00 -1.00000000E+00 -5.60000000E+00 -1.00000000E+00
 -1.00000000E+00
Nuclear ZNuc                               R   N=           6
  1.00000000E+00  8.00000000E+00  1.00000000E+00  8.00000000E+00  1.00000000E+00
  1.00000000E+00
Nuclear QMom                               R   N=           6
  0.00000000E+00  0.00000000E+00  0.00000000E+00  0.00000000E+00  0.00000000E+00
  0.00000000E+00
Nuclear GFac                               R   N=           6
  2.79284600E+00  0.00000000E+00  2.79284600E+00  0.00000000E+00  2.79284600E+00
  2.79284600E+00
MicOpt                                     I   N=           6
          -1          -1          -1          -1          -1          -1
SymInf integers                            I   N=          26
           2           2           1           1           1           1
           1          -1           0           0           0           0
           0           0           0           0           0           0
           0           0           0           0           0           0
           0           0
RotTr to input orientation                 R   N=          12
  3.48814930E-01  5.04680714E-09 -9.37191626E-01 -9.37191626E-01 -3.88697832E-10
 -3.48814930E-01 -2.12468603E-09  1.00000000E+00  4.59424179E-09  2.68505414E+00
 -4.35771641E-11  2.81386607E+00
Number of contracted shells                I               64
Number of primitive shells                 I               98
Pure/Cartesian d shells                    I                0
Pure/Cartesian f shells                    I                0
Highest angular momentum                   I                3
Largest degree of contraction              I                7
Shell types                                I   N=          64
           0           0           0           0           1           1
           1          -2          -2           0           0           0
           0           0           1           1           1           1
          -2          -2          -2          -3          -3           0
           0           0           0           1           1           1
          -2          -2           0           0           0           0
           0           1           1           1           1          -2
          -2          -2          -3          -3           0           0
           0           0           1           1           1          -2
          -2           0           0           0           0           1
           1           1          -2          -2
Number of primitives per shell             I   N=          64
           3           1           1           1           1           1
           1           1           1           7           6           1
           1           1           3           1           1           1
           1           1           1           1           1           3
           1           1           1           1           1           1
           1           1           7           6           1           1
           1           3           1           1           1           1
           1           1           1           1           3           1
           1           1           1           1           1           1
           1           3           1           1           1           1
           1           1           1           1
Shell to atom map                          I   N=          64
           1           1           1           1           1           1
           1           1           1           2           2           2
           2           2           2           2           2           2
           2           2           2           2           2           3
           3           3           3           3           3           3
           3           3           4           4           4           4
           4           4           4           4           4           4
           4           4           4           4           5           5
           5           5           5           5           5           5
           5           6           6           6           6           6
           6           6           6           6
Primitive exponents                        R   N=          98
  3.38700000E+01  5.09500000E+00  1.15900000E+00  3.25800000E-01  1.02700000E-01
  2.52600000E-02  1.40700000E+00  3.88000000E-01  1.02000000E-01  1.05700000E+00
  2.47000000E-01  1.53300000E+04  2.29900000E+03  5.22400000E+02  1.47300000E+02
  4.75500000E+01  1.67600000E+01  6.20700000E+00  5.22400000E+02  1.47300000E+02
  4.75500000E+01  1.67600000E+01  6.20700000E+00  6.88200000E-01  1.75200000E+00
  2.38400000E-01  7.37600000E-02  3.44600000E+01  7.74900000E+00  2.28000000E+00
  7.15600000E-01  2.14000000E-01  5.97400000E-02  2.31400000E+00  6.45000000E-01
  2.14000000E-01  1.42800000E+00  5.00000000E-01  3.38700000E+01  5.09500000E+00
  1.15900000E+00  3.25800000E-01  1.02700000E-01  2.52600000E-02  1.40700000E+00
  3.88000000E-01  1.02000000E-01  1.05700000E+00  2.47000000E-01  1.53300000E+04
  2.29900000E+03  5.22400000E+02  1.47300000E+02  4.75500000E+01  1.67600000E+01
  6.20700000E+00  5.22400000E+02  1.47300000E+02  4.75500000E+01  1.67600000E+01
  6.20700000E+00  6.88200000E-01  1.75200000E+00  2.38400000E-01  7.37600000E-02
  3.44600000E+01  7.74900000E+00  2.28000000E+00  7.15600000E-01  2.14000000E-01
  5.97400000E-02  2.31400000E+00  6.45000000E-01  2.14000000E-01  1.42800000E+00
  5.00000000E-01  3.38700000E+01  5.09500000E+00  1.15900000E+00  3.25800000E-01
  1.02700000E-01  2.52600000E-02  1.40700000E+00  3.88000000E-01  1.02000000E-01
  1.05700000E+00  2.47000000E-01  3.38700000E+01  5.09500000E+00  1.15900000E+00
  3.25800000E-01  1.02700000E-01  2.52600000E-02  1.40700000E+00  3.88000000E-01
  1.02000000E-01  1.05700000E+00  2.47000000E-01
Contraction coefficients                   R   N=          98
  2.54948632E-02  1.90362766E-01  8.52162022E-01  1.00000000E+00  1.00000000E+00
  1.00000000E+00  1.00000000E+00  1.00000000E+00  1.00000000E+00  1.00000000E+00
  1.00000000E+00  5.19808943E-04  4.02025621E-03  2.07128267E-02  8.10105536E-02
  2.35962985E-01  4.42653446E-01  3.57064423E-01 -4.42115008E-05 -1.22591041E-03
 -1.05517725E-02 -6.74452633E-02 -1.71198607E-01  1.07329856E+00  1.00000000E+00
  1.00000000E+00  1.00000000E+00  4.11634896E-02  2.57762836E-01  8.02419274E-01
  1.00000000E+00  1.00000000E+00  1.00000000E+00  1.00000000E+00  1.00000000E+00
  1.00000000E+00  1.00000000E+00  1.00000000E+00  2.54948632E-02  1.90362766E-01
  8.52162022E-01  1.00000000E+00  1.00000000E+00  1.00000000E+00  1.00000000E+00
  1.00000000E+00  1.00000000E+00  1.00000000E+00  1.00000000E+00  5.19808943E-04
  4.02025621E-03  2.07128267E-02  8.10105536E-02  2.35962985E-01  4.42653446E-01
  3.57064423E-01 -4.42115008E-05 -1.22591041E-03 -1.05517725E-02 -6.74452633E-02
 -1.71198607E-01  1.07329856E+00  1.00000000E+00  1.00000000E+00  1.00000000E+00
  4.11634896E-02  2.57762836E-01  8.02419274E-01  1.00000000E+00  1.00000000E+00
  1.00000000E+00  1.00000000E+00  1.00000000E+00  1.00000000E+00  1.00000000E+00
  1.00000000E+00  2.54948632E-02  1.90362766E-01  8.52162022E-01  1.00000000E+00
  1.00000000E+00  1.00000000E+00  1.00000000E+00  1.00000000E+00  1.00000000E+00
  1.00000000E+00  1.00000000E+00  2.54948632E-02  1.90362766E-01  8.52162022E-01
  1.00000000E+00  1.00000000E+00  1.00000000E+00  1.00000000E+00  1.00000000E+00
  1.00000000E+00  1.00000000E+00  1.00000000E+00
Coordinates of each shell                  R   N=         192
  1.70054474E+00  3.49792875E+00  1.02495440E-24  1.70054474E+00  3.49792875E+00
  1.02495440E-24  1.70054474E+00  3.49792875E+00  1.02495440E-24  1.70054474E+00
  3.49792875E+00  1.02495440E-24  1.70054474E+00  3.49792875E+00  1.02495440E-24
  1.70054474E+00  3.49792875E+00  1.02495440E-24  1.70054474E+00  3.49792875E+00
  1.02495440E-24  1.70054474E+00  3.49792875E+00  1.02495440E-24  1.70054474E+00
  3.49792875E+00  1.02495440E-24 -4.03972677E-04  2.86484978E+00 -8.89156812E-25
 -4.03972677E-04  2.86484978E+00 -8.89156812E-25 -4.03972677E-04  2.86484978E+00
 -8.89156812E-25 -4.03972677E-04  2.86484978E+00 -8.89156812E-25 -4.03972677E-04
  2.86484978E+00 -8.89156812E-25 -4.03972677E-04  2.86484978E+00 -8.89156812E-25
 -4.03972677E-04  2.86484978E+00 -8.89156812E-25 -4.03972677E-04  2.86484978E+00
 -8.89156812E-25 -4.03972677E-04  2.86484978E+00 -8.89156812E-25 -4.03972677E-04
  2.86484978E+00 -8.89156812E-25 -4.03972677E-04  2.86484978E+00 -8.89156812E-25
 -4.03972677E-04  2.86484978E+00 -8.89156812E-25 -4.03972677E-04  2.86484978E+00
 -8.89156812E-25 -4.03972677E-04  2.86484978E+00 -8.89156812E-25  1.88506628E-01
  1.04424375E+00 -9.00232778E-26  1.88506628E-01  1.04424375E+00 -9.00232778E-26
  1.88506628E-01  1.04424375E+00 -9.00232778E-26  1.88506628E-01  1.04424375E+00
 -9.00232778E-26  1.88506628E-01  1.04424375E+00 -9.00232778E-26  1.88506628E-01
  1.04424375E+00 -9.00232778E-26  1.88506628E-01  1.04424375E+00 -9.00232778E-26
  1.88506628E-01  1.04424375E+00 -9.00232778E-26  1.88506628E-01  1.04424375E+00
 -9.00232778E-26 -4.03972677E-04 -2.62726516E+00  8.14457313E-25 -4.03972677E-04
 -2.62726516E+00  8.14457313E-25 -4.03972677E-04 -2.62726516E+00  8.14457313E-25
 -4.03972677E-04 -2.62726516E+00  8.14457313E-25 -4.03972677E-04 -2.62726516E+00
  8.14457313E-25 -4.03972677E-04 -2.62726516E+00  8.14457313E-25 -4.03972677E-04
 -2.62726516E+00  8.14457313E-25 -4.03972677E-04 -2.62726516E+00  8.14457313E-25
 -4.03972677E-04 -2.62726516E+00  8.14457313E-25 -4.03972677E-04 -2.62726516E+00
  8.14457313E-25 -4.03972677E-04 -2.62726516E+00  8.14457313E-25 -4.03972677E-04
 -2.62726516E+00  8.14457313E-25 -4.03972677E-04 -2.62726516E+00  8.14457313E-25
 -4.03972677E-04 -2.62726516E+00  8.14457313E-25 -9.41293905E-01 -3.22142476E+00
  1.43814291E+00 -9.41293905E-01 -3.22142476E+00  1.43814291E+00 -9.41293905E-01
 -3.22142476E+00  1.43814291E+00 -9.41293905E-01 -3.22142476E+00  1.43814291E+00
 -9.41293905E-01 -3.22142476E+00  1.43814291E+00 -9.41293905E-01 -3.22142476E+00
  1.43814291E+00 -9.41293905E-01 -3.22142476E+00  1.43814291E+00 -9.41293905E-01
 -3.22142476E+00  1.43814291E+00 -9.41293905E-01 -3.22142476E+00  1.43814291E+00
 -9.41293905E-01 -3.22142476E+00 -1.43814291E+00 -9.41293905E-01 -3.22142476E+00
 -1.43814291E+00 -9.41293905E-01 -3.22142476E+00 -1.43814291E+00 -9.41293905E-01
 -3.22142476E+00 -1.43814291E+00 -9.41293905E-01 -3.22142476E+00 -1.43814291E+00
 -9.41293905E-01 -3.22142476E+00 -1.43814291E+00 -9.41293905E-01 -3.22142476E+00
 -1.43814291E+00 -9.41293905E-01 -3.22142476E+00 -1.43814291E+00 -9.41293905E-01
 -3.22142476E+00 -1.43814291E+00
Constraint Structure                       R   N=          18
  1.70054474E+00  3.49792875E+00  1.02495440E-24 -4.03972677E-04  2.86484978E+00
 -8.89156812E-25  1.88506628E-01  1.04424375E+00 -9.00232778E-26 -4.03972677E-04
 -2.62726516E+00  8.14457313E-25 -9.41293905E-01 -3.22142476E+00  1.43814291E+00
 -9.41293905E-01 -3.22142476E+00 -1.43814291E+00
Num ILSW                                   I              100
ILSW                                       I   N=         100
           0           0           0           1           2           0
           0           0           0           0           0          -1
           0           0           0           0           2           0
           0           0           1           0           1           0
           1           0           0           0           0           0
           0           0      100000           0          -1           0
           0           0           0           0           0           0
           0           0           0           1           1           0
           0           0           1           0           0           0
           0           0           4          41           0           0
           0           0           0           0           0           0
           0           0           0           0           0           0
           0           0           0           0           0           0
           0           0           0           0           0           0
           0           0           0           0           0           0
           0           0           0           0           0           0
           0           0           0           0
Num RLSW                                   I               41
RLSW                                       R   N=          41
  1.00000000E+00  1.00000000E+00  1.00000000E+00  1.00000000E+00  1.00000000E+00
  0.00000000E+00  0.00000000E+00  1.00000000E+00  0.00000000E+00  0.00000000E+00
  0.00000000E+00  0.00000000E+00  1.00000000E+00  0.00000000E+00  0.00000000E+00
  0.00000000E+00  0.00000000E+00  1.00000000E+00  0.00000000E+00  0.00000000E+00
  0.00000000E+00  0.00000000E+00  1.00000000E+00  0.00000000E+00  0.00000000E+00
  0.00000000E+00  0.00000000E+00  1.00000000E+00  0.00000000E+00  0.00000000E+00
  0.00000000E+00  0.00000000E+00  1.00000000E+00  0.00000000E+00  0.00000000E+00
  0.00000000E+00  0.00000000E+00  0.00000000E+00  1.00000000E+00  1.00000000E+00
  0.00000000E+00
MxBond                                     I                2
NBond                                      I   N=           6
           1           2           1           2           1           1
IBond                                      I   N=          12
           2           0           1           3           2           0
           5           6           4           0           4           0
RBond                                      R   N=          12
  1.00000000E+00  0.00000000E+00  1.00000000E+00  1.00000000E+00  1.00000000E+00
  0.00000000E+00  1.00000000E+00  1.00000000E+00  1.00000000E+00  0.00000000E+00
  1.00000000E+00  0.00000000E+00
Virial Ratio                               R      2.001498626082229E+00
SCF Energy                                 R     -1.521261021174146E+02
MP2 Energy                                 R     -1.526662401693512E+02
Total Energy                               R     -1.526662401693512E+02
Post-SCF wavefunction norm                 R      1.501734283168831E+00
RMS Force                                  R      2.937545021046589E-05
RMS Density                                R      1.341121858781070E-09
Job Status                                 I                1
Nuclear derivative order                   I                3
External E-field                           R   N=          35
  0.00000000E+00  0.00000000E+00  0.00000000E+00  0.00000000E+00  0.00000000E+00
  0.00000000E+00  0.00000000E+00  0.00000000E+00  0.00000000E+00  0.00000000E+00
  0.00000000E+00  0.00000000E+00  0.00000000E+00  0.00000000E+00  0.00000000E+00
  0.00000000E+00  0.00000000E+00  0.00000000E+00  0.00000000E+00  0.00000000E+00
  0.00000000E+00  0.00000000E+00  0.00000000E+00  0.00000000E+00  0.00000000E+00
  0.00000000E+00  0.00000000E+00  0.00000000E+00  0.00000000E+00  0.00000000E+00
  0.00000000E+00  0.00000000E+00  0.00000000E+00  0.00000000E+00  0.00000000E+00
IOpCl                                      I                0
IROHF                                      I                0
Alpha Orbital Energies                     R   N=         184
 -2.05925773E+01 -2.05362050E+01 -1.37871074E+00 -1.32074475E+00 -7.40616672E-01
 -6.92976590E-01 -6.13842385E-01 -5.58779140E-01 -5.30691854E-01 -4.81005299E-01
  2.29413222E-02  4.56219286E-02  4.67294987E-02  7.64476639E-02  1.21255600E-01
  1.42448841E-01  1.64198789E-01  1.69752545E-01  1.77553301E-01  1.86543175E-01
  2.15020786E-01  2.18340556E-01  2.34966617E-01  2.43419579E-01  2.70553720E-01
  2.71651771E-01  2.99533696E-01  3.13464237E-01  3.67256448E-01  3.70587539E-01
  3.72459584E-01  4.11981384E-01  4.12889285E-01  4.42224103E-01  4.42385893E-01
  4.56434631E-01  4.85291222E-01  5.80909197E-01  5.92543945E-01  6.10972760E-01
  6.70981308E-01  7.07389549E-01  7.19621756E-01  7.31378956E-01  7.54227996E-01
  7.76949157E-01  7.85842994E-01  7.94576650E-01  8.25859720E-01  8.31132956E-01
  8.57383511E-01  8.90421581E-01  9.05273934E-01  9.32454881E-01  9.45219686E-01
  9.61323644E-01  9.66449937E-01  9.71899118E-01  9.87756669E-01  1.00023818E+00
  1.01793425E+00  1.02399119E+00  1.03557833E+00  1.05208453E+00  1.07181818E+00
  1.12462510E+00  1.15090520E+00  1.18554057E+00  1.18690489E+00  1.23272236E+00
  1.23849836E+00  1.24472781E+00  1.29017352E+00  1.30275559E+00  1.38390768E+00
  1.43448430E+00  1.48896847E+00  1.50855250E+00  1.56148967E+00  1.57482654E+00
  1.63639738E+00  1.64703097E+00  1.70463263E+00  1.72859212E+00  1.81686151E+00
  1.82672446E+00  1.94885265E+00  1.99491940E+00  2.05656493E+00  2.09575676E+00
  2.13370600E+00  2.26051751E+00  2.30967010E+00  2.31687623E+00  2.32594612E+00
  2.41360504E+00  2.44327235E+00  2.46002432E+00  2.47712992E+00  2.48857164E+00
  2.50489951E+00  2.50729233E+00  2.56582382E+00  2.60720252E+00  2.66815276E+00
  2.69009411E+00  2.74937178E+00  2.75410499E+00  2.78252062E+00  2.81467696E+00
  2.85803304E+00  2.90733552E+00  2.93037284E+00  2.99542998E+00  3.00883369E+00
  3.01669284E+00  3.74596858E+00  3.77367256E+00  3.79161319E+00  4.02759237E+00
  4.07367087E+00  4.08452984E+00  4.18750118E+00  4.22925261E+00  4.23779074E+00
  4.25414499E+00  4.28231555E+00  4.30588072E+00  4.33708524E+00  4.41199803E+00
  4.41516751E+00  4.47021246E+00  4.47931856E+00  4.48128500E+00  4.49333473E+00
  4.55445654E+00  4.59910368E+00  4.73300100E+00  4.74550220E+00  4.84707113E+00
  4.88534395E+00  5.02919254E+00  5.10353538E+00  5.16293608E+00  5.17796328E+00
  5.23161468E+00  5.27848340E+00  5.31457716E+00  5.35251867E+00  5.42198400E+00
  5.58421164E+00  5.64180872E+00  5.73289719E+00  5.76403681E+00  6.23396720E+00
  6.36904042E+00  6.51262526E+00  6.56652440E+00  6.78139760E+00  6.78542991E+00
  6.91821565E+00  6.98477718E+00  7.15245702E+00  7.16512990E+00  7.27715650E+00
  7.29890617E+00  7.30091535E+00  7.32472873E+00  7.35109208E+00  7.36341898E+00
  7.38380210E+00  7.42469953E+00  7.45518850E+00  7.53361778E+00  7.58491177E+00
  7.72583618E+00  7.91040454E+00  7.93559341E+00  8.00441633E+00  8.07620589E+00
  8.87075024E+00  8.89591673E+00  1.57930360E+01  1.68687451E+01
Alpha MO coefficients                      R   N=       33856
 -4.44376995E-08 -2.78277546E-04 -2.94004985E-04 -4.89811706E-05  6.04291197E-06
 -3.20371790E-06  0.00000000E+00  1.07995872E-04  7.43208215E-05  0.00000000E+00
  5.44621771E-05 -4.78804958E-05  0.00000000E+00  1.02214176E-05  0.00000000E+00
  0.00000000E+00 -4.76270262E-06 -2.29339876E-06 -1.16961019E-05  0.00000000E+00
  0.00000000E+00 -3.11462823E-05 -1.31872337E-05 -5.69646111E-05 -2.41441757E-05
 -1.49656977E-05  5.51672353E-04  1.29952186E-04 -4.36932643E-06  5.44502199E-06
  0.00000000E+00  4.00261852E-05 -1.02469418E-05  0.00000000E+00  2.41261186E-04
 -3.85019202E-04  0.00000000E+00  1.50943474E-04  8.77620677E-06  0.00000000E+00
  3.11062966E-06  0.00000000E+00  0.00000000E+00  3.00236828E-06 -3.44180766E-06
 -4.04827713E-05  0.00000000E+00  0.00000000E+00 -2.55521292E-05  1.93255553E-05
 -1.35207573E-04  0.00000000E+00  0.00000000E+00 -1.20982935E-04 -3.99548132E-05
  0.00000000E+00 -1.01280656E-06 -3.96962928E-06  0.00000000E+00  0.00000000E+00
 -3.29104886E-06  1.81737694E-06  0.00000000E+00 -8.60114166E-06  3.64728023E-05
  0.00000000E+00  0.00000000E+00  1.02583951E-06  3.54770214E-05  1.09276604E-05
 -6.88878154E-04 -4.03842284E-04  6.69885033E-05  2.95435038E-06 -2.51751383E-05
  0.00000000E+00  1.40831777E-05 -3.52291171E-06  0.00000000E+00 -1.40405707E-04
  6.01633001E-04  0.00000000E+00  9.42947598E-06  0.00000000E+00  0.00000000E+00
  1.80486688E-05 -2.12562010E-06  1.39403646E-05  0.00000000E+00  0.00000000E+00
 -2.72168834E-05  1.23350469E-05  9.76690122E-01 -8.98827777E-03  4.36500688E-02
  1.60021752E-04  7.70561339E-04 -1.55733961E-03 -8.98331619E-04  0.00000000E+00
  1.35351438E-03  7.41006741E-04  0.00000000E+00  9.52090772E-05  4.33382212E-04
  0.00000000E+00 -1.97647273E-04  5.44953243E-05  0.00000000E+00  5.59783049E-05
  0.00000000E+00  0.00000000E+00  1.26538282E-05  4.54207670E-05 -4.57190827E-04
  0.00000000E+00  0.00000000E+00 -1.12937342E-04 -3.45696425E-04 -1.44203245E-04
  0.00000000E+00  0.00000000E+00 -1.23495008E-04  1.25749680E-04  0.00000000E+00
 -1.68023807E-05 -5.00914647E-06  0.00000000E+00  0.00000000E+00 -1.61245416E-07
  1.87032795E-05  0.00000000E+00  1.95508448E-04  1.02303516E-04  0.00000000E+00
  0.00000000E+00 -1.04651975E-05  7.40994093E-06  4.91651717E-04  1.46293680E-03
 -2.16937329E-04  2.01902803E-06  9.17974029E-05  6.22853327E-05 -1.62996277E-04
  5.82390143E-04  3.51735854E-04 -7.42648182E-04  1.09127330E-04  4.92303779E-05
 -1.30114417E-04 -2.76663130E-05  8.83261017E-05  5.96815264E-05 -2.53668926E-05
 -4.74048030E-05  1.80209576E-04 -3.25986619E-04 -1.95898277E-04  9.67699792E-05
  1.36920620E-04  4.91651717E-04  1.46293680E-03 -2.16937329E-04  2.01902803E-06
  9.17974029E-05  6.22853327E-05  1.62996277E-04  5.82390143E-04  3.51735854E-04
  7.42648182E-04  1.09127330E-04  4.92303779E-05  1.30114417E-04 -2.76663130E-05
 -8.83261017E-05 -5.96815264E-05 -2.53668926E-05 -4.74048030E-05  1.80209576E-04
  3.25986619E-04  1.95898277E-04  9.67699792E-05  1.36920620E-04  5.10928358E-04
  1.74570128E-03  1.31403763E-03 -5.42325505E-05 -1.75337067E-04 -8.33346024E-05
  0.00000000E+00 -9.30411372E-04 -4.73899358E-05  0.00000000E+00 -4.47937172E-04
 -1.34309399E-04  0.00000000E+00  7.01855628E-05  0.00000000E+00  0.00000000E+00
 -1.09403081E-04 -7.39381888E-05 -1.65752519E-04  0.00000000E+00  0.00000000E+00
  2.86187381E-04  8.45845623E-05  9.76647201E-01 -9.25216904E-03  4.36469889E-02
 -3.72147531E-05 -6.55891852E-04  1.54839879E-03 -8.99224184E-04  0.00000000E+00
 -1.26531372E-03  8.99969433E-04  0.00000000E+00 -5.96624226E-04 -1.00873643E-03
  0.00000000E+00 -2.00877442E-05 -1.29189781E-05  0.00000000E+00 -6.70215350E-05
  0.00000000E+00  0.00000000E+00 -3.25314729E-06  2.67982000E-05  4.60406291E-04
  0.00000000E+00  0.00000000E+00 -3.47269849E-07 -2.20473964E-04 -7.02362485E-06
  0.00000000E+00  0.00000000E+00 -2.11021989E-04 -3.04810498E-04  0.00000000E+00
 -7.53898385E-06  7.09069824E-06  0.00000000E+00  0.00000000E+00 -7.07243347E-06
  5.65870503E-05  0.00000000E+00  1.14989596E-04 -6.62265463E-06  0.00000000E+00
  0.00000000E+00  1.89758036E-05 -2.64015268E-04  4.25165768E-04  5.54058279E-04
  1.27489423E-03  2.84010391E-04 -1.33158047E-05  1.41443133E-04  0.00000000E+00
 -8.69957177E-05  1.20969706E-03  0.00000000E+00 -1.60249304E-04 -1.21159488E-03
  0.00000000E+00  8.43396566E-05  0.00000000E+00  0.00000000E+00  1.26431362E-04
  5.90324545E-05 -7.13349901E-04  0.00000000E+00  0.00000000E+00 -1.23806396E-03
 -1.32543379E-04  6.97025067E-05  8.04915674E-05  6.16028842E-06 -4.98642050E-04
 -5.40402188E-04 -3.20402723E-06  6.53468025E-06  0.00000000E+00  2.13193374E-05
 -2.27099540E-05  0.00000000E+00 -3.28091641E-04 -1.13605693E-03  0.00000000E+00
 -3.14447266E-05 -3.25333880E-04  0.00000000E+00 -2.73396523E-06  0.00000000E+00
  0.00000000E+00 -6.02795574E-06 -7.49918042E-06  1.55008753E-05  0.00000000E+00
  0.00000000E+00  5.33358902E-05  4.26809581E-05  8.27699062E-05  0.00000000E+00
  0.00000000E+00  1.37236993E-04 -3.43722961E-05  0.00000000E+00  3.94787695E-06
  1.70869910E-05  0.00000000E+00  0.00000000E+00 -6.92892567E-06  1.85804319E-05
  0.00000000E+00  4.97997052E-06 -4.95242584E-05  0.00000000E+00  0.00000000E+00
  4.63904377E-05 -4.99430174E-05 -3.99388507E-06 -1.93148817E-04 -2.31736203E-04
 -7.41747000E-05 -4.00889018E-06  8.49804838E-06  2.33060658E-06  8.68881741E-06
  7.52159265E-05  5.94425878E-05 -5.36778754E-05 -2.52795912E-05  6.93777087E-05
 -1.18588682E-05 -5.90979497E-06 -6.28614736E-06 -7.68348871E-06  2.76127563E-06
  7.35533752E-06 -6.29601576E-06 -4.26601641E-05  1.05487642E-05  4.03361935E-05
 -3.99388507E-06 -1.93148817E-04 -2.31736203E-04 -7.41747000E-05 -4.00889018E-06
  8.49804838E-06 -2.33060658E-06  8.68881741E-06  7.52159265E-05 -5.94425878E-05
 -5.36778754E-05 -2.52795912E-05 -6.93777087E-05 -1.18588682E-05  5.90979497E-06
  6.28614736E-06 -7.68348871E-06  2.76127563E-06  7.35533752E-06  6.29601576E-06
  4.26601641E-05  1.05487642E-05  4.03361935E-05  6.36179068E-03  3.21876660E-03
 -2.30312815E-03  4.13146423E-04 -7.48962797E-04 -3.93788427E-04  0.00000000E+00
  5.16395282E-04  9.99253589E-04  0.00000000E+00  5.18909745E-04  8.47900936E-04
  0.00000000E+00  1.98028741E-05  0.00000000E+00  0.00000000E+00  1.98389009E-05
 -4.67592869E-06  1.98225904E-04  0.00000000E+00  0.00000000E+00 -2.42260759E-04
 -4.02729745E-04 -1.58556314E-02  3.72732322E-02  1.01162295E-02  2.50062026E-02
  7.86317116E-04  2.61775930E-03 -3.58964709E-03  0.00000000E+00  4.24192043E-03
 -4.33755164E-03  0.00000000E+00  9.11371253E-04 -7.38976899E-03  0.00000000E+00
  1.73951448E-04 -3.76581054E-04  0.00000000E+00 -2.86925343E-04  0.00000000E+00
  0.00000000E+00 -9.44902655E-05  1.24100769E-05 -1.13525923E-03  0.00000000E+00
  0.00000000E+00 -3.65431650E-04  4.58630097E-04 -1.14785836E-03  0.00000000E+00
  0.00000000E+00 -1.90407001E-03 -6.20017527E-04  0.00000000E+00 -1.10827955E-04
  4.02902393E-05  0.00000000E+00  0.00000000E+00  7.58217341E-05  2.46537768E-04
  0.00000000E+00 -4.12461888E-05  2.62776853E-04  0.00000000E+00  0.00000000E+00
  2.35812345E-04  2.35257811E-05  1.04961753E-02  2.32657214E-03  1.34828263E-03
 -2.44960357E-04 -1.27608548E-04  8.30092984E-04  0.00000000E+00  8.37505245E-04
 -6.66949501E-04  0.00000000E+00  3.87408764E-04  4.84512166E-03  0.00000000E+00
 -2.67588376E-04  0.00000000E+00  0.00000000E+00 -5.58142172E-04  1.19870961E-04
 -1.39641763E-03  0.00000000E+00  0.00000000E+00 -2.76291516E-03  1.04616003E-03
 -2.00904858E-01  4.86415502E-01  1.32216025E-01  2.91446161E-01  3.91344247E-02
 -3.67924557E-02 -2.13481115E-02  0.00000000E+00 -5.21678312E-02 -3.01285997E-02
  0.00000000E+00 -1.24363529E-02 -4.87240621E-03  0.00000000E+00 -2.69137515E-03
 -5.81783067E-04  0.00000000E+00  2.66306612E-03  0.00000000E+00  0.00000000E+00
  1.06147108E-03  2.28943119E-03  4.86778800E-03  0.00000000E+00  0.00000000E+00
  2.45847388E-03  6.37065595E-03 -4.69796058E-03  0.00000000E+00  0.00000000E+00
 -2.28079505E-03 -1.23132498E-04  0.00000000E+00 -2.22018227E-03 -1.37991135E-03
  0.00000000E+00  0.00000000E+00  9.57811185E-05 -8.57183068E-04  0.00000000E+00
  1.96104879E-04 -3.68531129E-04  0.00000000E+00  0.00000000E+00  1.79700951E-04
 -1.17247615E-03  8.68216825E-02  7.55242473E-02 -1.62751608E-02 -1.58764169E-03
  6.28114061E-03  4.05611738E-03 -1.05768579E-02  5.10168923E-03  3.92386766E-03
 -8.21313211E-03 -3.63433529E-03 -2.32173907E-03  5.23349998E-03  9.96935344E-04
 -1.83778370E-03 -1.22212049E-03  2.24145362E-04  7.12807714E-04 -3.13767374E-04
  7.91574553E-04  2.76754916E-04  1.55282087E-04 -1.75091854E-04  8.68216825E-02
  7.55242473E-02 -1.62751608E-02 -1.58764169E-03  6.28114061E-03  4.05611738E-03
  1.05768579E-02  5.10168923E-03  3.92386766E-03  8.21313211E-03 -3.63433529E-03
 -2.32173907E-03 -5.23349998E-03  9.96935344E-04  1.83778370E-03  1.22212049E-03
  2.24145362E-04  7.12807714E-04 -3.13767374E-04 -7.91574553E-04 -2.76754916E-04