Frequency calc for equilibrium dimer structure                          
Freq      RMP2-FC                                                     Aug-CC-pVTZ         
Number of atoms                            I                6
Info1-9                                    I   N=           9
          45          41        1002           0           0         100
           6           2           1
Full Title                                 C   N=           4
Frequency calc for equilibrium dimer structure  
Route                                      C   N=           7
#MP2/aug-cc-pvtz #Density=current #Opt=(Z-Matrix,VeryTight) 
#Freq=Anharmonic        
Charge                                     I                0
Multiplicity                               I                1
Number of electrons                        I               20
Number of alpha electrons                  I               10
Number of beta electrons                   I               10
Number of basis functions                  I              184
Number of independent functions            I              184
Number of point charges in /Mol/           I                0
Number of translation vectors              I                0
Atomic numbers                             I   N=           6
           1           8           1           8           1           1
Nuclear charges                            R   N=           6
  1.00000000E+00  8.00000000E+00  1.00000000E+00  8.00000000E+00  1.00000000E+00
  1.00000000E+00
Current cartesian coordinates              R   N=          18
  3.61478601E+00 -1.59096232E-04  1.41949855E+00  2.85886643E+00  2.52314152E-05
 -2.30500512E-01  1.05706173E+00 -9.54661435E-06  9.14905498E-02 -2.61733684E+00
 -2.03656109E-05  2.08756999E-01 -3.30203874E+00  1.43819321E+00 -6.68383524E-01
 -3.30204571E+00 -1.43806350E+00 -6.68657468E-01
Number of symbols in /Mol/                 I                0
Force Field                                I                0
Atom Types                                 C   N=           6
                                                            
            
Int Atom Types                             I   N=           6
           0           0           0           0           0           0
MM charges                                 R   N=           6
  0.00000000E+00  0.00000000E+00  0.00000000E+00  0.00000000E+00  0.00000000E+00
  0.00000000E+00
Integer atomic weights                     I   N=           6
           1          16           1          16           1           1
Real atomic weights                        R   N=           6
  1.00782504E+00  1.59949146E+01  1.00782504E+00  1.59949146E+01  1.00782504E+00
  1.00782504E+00
Atom fragment info                         I   N=           6
           0           0           0           0           0           0
Atom residue num                           I   N=           6
           0           0           0           0           0           0
Nuclear spins                              I   N=           6
           1           0           1           0           1           1
Nuclear ZEff                               R   N=           6
 -1.00000000E+00 -5.60000000E+00 -1.00000000E+00 -5.60000000E+00 -1.00000000E+00
 -1.00000000E+00
Nuclear ZNuc                               R   N=           6
  1.00000000E+00  8.00000000E+00  1.00000000E+00  8.00000000E+00  1.00000000E+00
  1.00000000E+00
Nuclear QMom                               R   N=           6
  0.00000000E+00  0.00000000E+00  0.00000000E+00  0.00000000E+00  0.00000000E+00
  0.00000000E+00
Nuclear GFac                               R   N=           6
  2.79284600E+00  0.00000000E+00  2.79284600E+00  0.00000000E+00  2.79284600E+00
  2.79284600E+00
MicOpt                                     I   N=           6
          -1          -1          -1          -1          -1          -1
Number of residues                         I                0
Number of secondary structures             I                0
SymInf integers                            I   N=          26
           1           1           1           1           1           0
           0           0           0           0           0           0
           0           0           0           0           0           0
           0           0           0           0           0           0
           0           0
RotTr to input orientation                 R   N=          12
 -9.09133678E-01  6.11912014E-07 -4.16504448E-01 -4.58562183E-05  9.99999994E-01
  1.01562767E-04  4.16504446E-01  1.11433451E-04 -9.09133672E-01  2.69509624E+00
 -1.29532220E-06  2.79608840E+00
Number of contracted shells                I               64
Number of primitive shells                 I               98
Pure/Cartesian d shells                    I                0
Pure/Cartesian f shells                    I                0
Highest angular momentum                   I                3
Largest degree of contraction              I                7
Shell types                                I   N=          64
           0           0           0           0           1           1
           1          -2          -2           0           0           0
           0           0           1           1           1           1
          -2          -2          -2          -3          -3           0
           0           0           0           1           1           1
          -2          -2           0           0           0           0
           0           1           1           1           1          -2
          -2          -2          -3          -3           0           0
           0           0           1           1           1          -2
          -2           0           0           0           0           1
           1           1          -2          -2
Number of primitives per shell             I   N=          64
           3           1           1           1           1           1
           1           1           1           7           6           1
           1           1           3           1           1           1
           1           1           1           1           1           3
           1           1           1           1           1           1
           1           1           7           6           1           1
           1           3           1           1           1           1
           1           1           1           1           3           1
           1           1           1           1           1           1
           1           3           1           1           1           1
           1           1           1           1
Shell to atom map                          I   N=          64
           1           1           1           1           1           1
           1           1           1           2           2           2
           2           2           2           2           2           2
           2           2           2           2           2           3
           3           3           3           3           3           3
           3           3           4           4           4           4
           4           4           4           4           4           4
           4           4           4           4           5           5
           5           5           5           5           5           5
           5           6           6           6           6           6
           6           6           6           6
Primitive exponents                        R   N=          98
  3.38700000E+01  5.09500000E+00  1.15900000E+00  3.25800000E-01  1.02700000E-01
  2.52600000E-02  1.40700000E+00  3.88000000E-01  1.02000000E-01  1.05700000E+00
  2.47000000E-01  1.53300000E+04  2.29900000E+03  5.22400000E+02  1.47300000E+02
  4.75500000E+01  1.67600000E+01  6.20700000E+00  5.22400000E+02  1.47300000E+02
  4.75500000E+01  1.67600000E+01  6.20700000E+00  6.88200000E-01  1.75200000E+00
  2.38400000E-01  7.37600000E-02  3.44600000E+01  7.74900000E+00  2.28000000E+00
  7.15600000E-01  2.14000000E-01  5.97400000E-02  2.31400000E+00  6.45000000E-01
  2.14000000E-01  1.42800000E+00  5.00000000E-01  3.38700000E+01  5.09500000E+00
  1.15900000E+00  3.25800000E-01  1.02700000E-01  2.52600000E-02  1.40700000E+00
  3.88000000E-01  1.02000000E-01  1.05700000E+00  2.47000000E-01  1.53300000E+04
  2.29900000E+03  5.22400000E+02  1.47300000E+02  4.75500000E+01  1.67600000E+01
  6.20700000E+00  5.22400000E+02  1.47300000E+02  4.75500000E+01  1.67600000E+01
  6.20700000E+00  6.88200000E-01  1.75200000E+00  2.38400000E-01  7.37600000E-02
  3.44600000E+01  7.74900000E+00  2.28000000E+00  7.15600000E-01  2.14000000E-01
  5.97400000E-02  2.31400000E+00  6.45000000E-01  2.14000000E-01  1.42800000E+00
  5.00000000E-01  3.38700000E+01  5.09500000E+00  1.15900000E+00  3.25800000E-01
  1.02700000E-01  2.52600000E-02  1.40700000E+00  3.88000000E-01  1.02000000E-01
  1.05700000E+00  2.47000000E-01  3.38700000E+01  5.09500000E+00  1.15900000E+00
  3.25800000E-01  1.02700000E-01  2.52600000E-02  1.40700000E+00  3.88000000E-01
  1.02000000E-01  1.05700000E+00  2.47000000E-01
Contraction coefficients                   R   N=          98
  2.54948632E-02  1.90362766E-01  8.52162022E-01  1.00000000E+00  1.00000000E+00
  1.00000000E+00  1.00000000E+00  1.00000000E+00  1.00000000E+00  1.00000000E+00
  1.00000000E+00  5.19808943E-04  4.02025621E-03  2.07128267E-02  8.10105536E-02
  2.35962985E-01  4.42653446E-01  3.57064423E-01 -4.42115008E-05 -1.22591041E-03
 -1.05517725E-02 -6.74452633E-02 -1.71198607E-01  1.07329856E+00  1.00000000E+00
  1.00000000E+00  1.00000000E+00  4.11634896E-02  2.57762836E-01  8.02419274E-01
  1.00000000E+00  1.00000000E+00  1.00000000E+00  1.00000000E+00  1.00000000E+00
  1.00000000E+00  1.00000000E+00  1.00000000E+00  2.54948632E-02  1.90362766E-01
  8.52162022E-01  1.00000000E+00  1.00000000E+00  1.00000000E+00  1.00000000E+00
  1.00000000E+00  1.00000000E+00  1.00000000E+00  1.00000000E+00  5.19808943E-04
  4.02025621E-03  2.07128267E-02  8.10105536E-02  2.35962985E-01  4.42653446E-01
  3.57064423E-01 -4.42115008E-05 -1.22591041E-03 -1.05517725E-02 -6.74452633E-02
 -1.71198607E-01  1.07329856E+00  1.00000000E+00  1.00000000E+00  1.00000000E+00
  4.11634896E-02  2.57762836E-01  8.02419274E-01  1.00000000E+00  1.00000000E+00
  1.00000000E+00  1.00000000E+00  1.00000000E+00  1.00000000E+00  1.00000000E+00
  1.00000000E+00  2.54948632E-02  1.90362766E-01  8.52162022E-01  1.00000000E+00
  1.00000000E+00  1.00000000E+00  1.00000000E+00  1.00000000E+00  1.00000000E+00
  1.00000000E+00  1.00000000E+00  2.54948632E-02  1.90362766E-01  8.52162022E-01
  1.00000000E+00  1.00000000E+00  1.00000000E+00  1.00000000E+00  1.00000000E+00
  1.00000000E+00  1.00000000E+00  1.00000000E+00
Coordinates of each shell                  R   N=         192
  3.61478601E+00 -1.59096232E-04  1.41949855E+00  3.61478601E+00 -1.59096232E-04
  1.41949855E+00  3.61478601E+00 -1.59096232E-04  1.41949855E+00  3.61478601E+00
 -1.59096232E-04  1.41949855E+00  3.61478601E+00 -1.59096232E-04  1.41949855E+00
  3.61478601E+00 -1.59096232E-04  1.41949855E+00  3.61478601E+00 -1.59096232E-04
  1.41949855E+00  3.61478601E+00 -1.59096232E-04  1.41949855E+00  3.61478601E+00
 -1.59096232E-04  1.41949855E+00  2.85886643E+00  2.52314152E-05 -2.30500512E-01
  2.85886643E+00  2.52314152E-05 -2.30500512E-01  2.85886643E+00  2.52314152E-05
 -2.30500512E-01  2.85886643E+00  2.52314152E-05 -2.30500512E-01  2.85886643E+00
  2.52314152E-05 -2.30500512E-01  2.85886643E+00  2.52314152E-05 -2.30500512E-01
  2.85886643E+00  2.52314152E-05 -2.30500512E-01  2.85886643E+00  2.52314152E-05
 -2.30500512E-01  2.85886643E+00  2.52314152E-05 -2.30500512E-01  2.85886643E+00
  2.52314152E-05 -2.30500512E-01  2.85886643E+00  2.52314152E-05 -2.30500512E-01
  2.85886643E+00  2.52314152E-05 -2.30500512E-01  2.85886643E+00  2.52314152E-05
 -2.30500512E-01  2.85886643E+00  2.52314152E-05 -2.30500512E-01  1.05706173E+00
 -9.54661435E-06  9.14905498E-02  1.05706173E+00 -9.54661435E-06  9.14905498E-02
  1.05706173E+00 -9.54661435E-06  9.14905498E-02  1.05706173E+00 -9.54661435E-06
  9.14905498E-02  1.05706173E+00 -9.54661435E-06  9.14905498E-02  1.05706173E+00
 -9.54661435E-06  9.14905498E-02  1.05706173E+00 -9.54661435E-06  9.14905498E-02
  1.05706173E+00 -9.54661435E-06  9.14905498E-02  1.05706173E+00 -9.54661435E-06
  9.14905498E-02 -2.61733684E+00 -2.03656109E-05  2.08756999E-01 -2.61733684E+00
 -2.03656109E-05  2.08756999E-01 -2.61733684E+00 -2.03656109E-05  2.08756999E-01
 -2.61733684E+00 -2.03656109E-05  2.08756999E-01 -2.61733684E+00 -2.03656109E-05
  2.08756999E-01 -2.61733684E+00 -2.03656109E-05  2.08756999E-01 -2.61733684E+00
 -2.03656109E-05  2.08756999E-01 -2.61733684E+00 -2.03656109E-05  2.08756999E-01
 -2.61733684E+00 -2.03656109E-05  2.08756999E-01 -2.61733684E+00 -2.03656109E-05
  2.08756999E-01 -2.61733684E+00 -2.03656109E-05  2.08756999E-01 -2.61733684E+00
 -2.03656109E-05  2.08756999E-01 -2.61733684E+00 -2.03656109E-05  2.08756999E-01
 -2.61733684E+00 -2.03656109E-05  2.08756999E-01 -3.30203874E+00  1.43819321E+00
 -6.68383524E-01 -3.30203874E+00  1.43819321E+00 -6.68383524E-01 -3.30203874E+00
  1.43819321E+00 -6.68383524E-01 -3.30203874E+00  1.43819321E+00 -6.68383524E-01
 -3.30203874E+00  1.43819321E+00 -6.68383524E-01 -3.30203874E+00  1.43819321E+00
 -6.68383524E-01 -3.30203874E+00  1.43819321E+00 -6.68383524E-01 -3.30203874E+00
  1.43819321E+00 -6.68383524E-01 -3.30203874E+00  1.43819321E+00 -6.68383524E-01
 -3.30204571E+00 -1.43806350E+00 -6.68657468E-01 -3.30204571E+00 -1.43806350E+00
 -6.68657468E-01 -3.30204571E+00 -1.43806350E+00 -6.68657468E-01 -3.30204571E+00
 -1.43806350E+00 -6.68657468E-01 -3.30204571E+00 -1.43806350E+00 -6.68657468E-01
 -3.30204571E+00 -1.43806350E+00 -6.68657468E-01 -3.30204571E+00 -1.43806350E+00
 -6.68657468E-01 -3.30204571E+00 -1.43806350E+00 -6.68657468E-01 -3.30204571E+00
 -1.43806350E+00 -6.68657468E-01
Num ILSW                                   I              100
ILSW                                       I   N=         100
           0           0           0           1           2           0
           0           0           0           0           0          -1
           5           0           0           0           2           0
           0           0           1           0           1           0
           1           0           0           0           0           0
           0           0      100000           0          -1           0
           0           0           0           0           0           0
           0           0           0           1           1           0
           0 -2000000000           1           0           0           0
           0           0           4          52           0           0
           0           0           0           0           0           0
           0           0           0           0           4           1
           0           0           0           0           0           0
           0           0           0           0           0           0
           0           0           0           0           0           0
           0           0           0           0           0           0
           0           0           0           0
Num RLSW                                   I               52
RLSW                                       R   N=          52
  1.00000000E+00  1.00000000E+00  1.00000000E+00  1.00000000E+00  1.00000000E+00
  0.00000000E+00  0.00000000E+00  1.00000000E+00  0.00000000E+00  0.00000000E+00
  0.00000000E+00  0.00000000E+00  1.00000000E+00  0.00000000E+00  0.00000000E+00
  0.00000000E+00  0.00000000E+00  1.00000000E+00  0.00000000E+00  0.00000000E+00
  0.00000000E+00  0.00000000E+00  1.00000000E+00  0.00000000E+00  0.00000000E+00
  0.00000000E+00  0.00000000E+00  1.00000000E+00  0.00000000E+00  0.00000000E+00
  0.00000000E+00  0.00000000E+00  1.00000000E+00  0.00000000E+00  0.00000000E+00
  0.00000000E+00  0.00000000E+00  0.00000000E+00  1.00000000E+00  1.00000000E+00
  0.00000000E+00  1.00000000E+00  0.00000000E+00  0.00000000E+00  0.00000000E+00
  0.00000000E+00  0.00000000E+00  0.00000000E+00  0.00000000E+00  0.00000000E+00
  0.00000000E+00  0.00000000E+00
MxBond                                     I                2
NBond                                      I   N=           6
           1           2           1           2           1           1
IBond                                      I   N=          12
           2           0           1           3           2           0
           5           6           4           0           4           0
RBond                                      R   N=          12
  1.00000000E+00  0.00000000E+00  1.00000000E+00  1.00000000E+00  1.00000000E+00
  0.00000000E+00  1.00000000E+00  1.00000000E+00  1.00000000E+00  0.00000000E+00
  1.00000000E+00  0.00000000E+00
Virial Ratio                               R      2.001499774880197E+00
SCF Energy                                 R     -1.521261127703892E+02
MP2 Energy                                 R     -1.526662407819549E+02
Total Energy                               R     -1.526662407819549E+02
Post-SCF wavefunction norm                 R      1.501732108487633E+00
RMS Force                                  R      2.881262066835920E-07
RMS Density                                R      2.353782469726630E-09
NImag                                      I                0
Job Status                                 I                1
Nuclear derivative order                   I                3
External E-field                           R   N=          35
  0.00000000E+00  0.00000000E+00  0.00000000E+00  0.00000000E+00  0.00000000E+00
  0.00000000E+00  0.00000000E+00  0.00000000E+00  0.00000000E+00  0.00000000E+00
  0.00000000E+00  0.00000000E+00  0.00000000E+00  0.00000000E+00  0.00000000E+00
  0.00000000E+00  0.00000000E+00  0.00000000E+00  0.00000000E+00  0.00000000E+00
  0.00000000E+00  0.00000000E+00  0.00000000E+00  0.00000000E+00  0.00000000E+00
  0.00000000E+00  0.00000000E+00  0.00000000E+00  0.00000000E+00  0.00000000E+00
  0.00000000E+00  0.00000000E+00  0.00000000E+00  0.00000000E+00  0.00000000E+00
IOpCl                                      I                0
IROHF                                      I                0
Alpha Orbital Energies                     R   N=         184
 -2.05926724E+01 -2.05360101E+01 -1.37877391E+00 -1.32056186E+00 -7.40685940E-01
 -6.92826969E-01 -6.13966250E-01 -5.58491078E-01 -5.30825461E-01 -4.80807964E-01
  2.28396647E-02  4.55476519E-02  4.67983654E-02  7.62967842E-02  1.21532751E-01
  1.42330676E-01  1.64057973E-01  1.69581923E-01  1.77480845E-01  1.86687648E-01
  2.14968009E-01  2.18756343E-01  2.35120166E-01  2.43598568E-01  2.70220701E-01
  2.71984739E-01  2.99421841E-01  3.13050045E-01  3.67398729E-01  3.70692818E-01
  3.72023636E-01  4.12158475E-01  4.13093530E-01  4.41164716E-01  4.42271407E-01
  4.56258908E-01  4.85184982E-01  5.80638590E-01  5.92983718E-01  6.10816628E-01
  6.71418186E-01  7.07311588E-01  7.18743499E-01  7.30620487E-01  7.54100162E-01
  7.76981807E-01  7.84539312E-01  7.94229480E-01  8.27043903E-01  8.30767918E-01
  8.58897438E-01  8.91687425E-01  9.05348568E-01  9.32316597E-01  9.44929678E-01
  9.61291188E-01  9.66858179E-01  9.72248928E-01  9.87143089E-01  1.00021670E+00
  1.01748439E+00  1.02335103E+00  1.03501344E+00  1.05247551E+00  1.07074523E+00
  1.12537354E+00  1.15226468E+00  1.18552692E+00  1.18586500E+00  1.23150289E+00
  1.23836794E+00  1.24365815E+00  1.29187292E+00  1.30673393E+00  1.38478111E+00
  1.43392700E+00  1.48549503E+00  1.50714592E+00  1.56158477E+00  1.57365760E+00
  1.63747195E+00  1.64800340E+00  1.70659532E+00  1.72695212E+00  1.81739430E+00
  1.82739296E+00  1.94918705E+00  1.99548144E+00  2.05432745E+00  2.09118004E+00
  2.13452132E+00  2.26052968E+00  2.31006525E+00  2.31663624E+00  2.32505190E+00
  2.41534217E+00  2.44452969E+00  2.45936141E+00  2.47704476E+00  2.49056111E+00
  2.50475137E+00  2.50620700E+00  2.56371730E+00  2.61070318E+00  2.66562295E+00
  2.69033412E+00  2.74961516E+00  2.75369166E+00  2.78175001E+00  2.81939074E+00
  2.85708621E+00  2.90881123E+00  2.92904594E+00  2.99461342E+00  3.01032367E+00
  3.01704414E+00  3.74536024E+00  3.77027503E+00  3.78953073E+00  4.02806690E+00
  4.07652147E+00  4.08542342E+00  4.18629217E+00  4.22842015E+00  4.23830200E+00
  4.25393183E+00  4.27874335E+00  4.30620001E+00  4.33679760E+00  4.41044196E+00
  4.41542594E+00  4.47164355E+00  4.47906214E+00  4.48120662E+00  4.49342160E+00
  4.55262616E+00  4.60195352E+00  4.73271759E+00  4.74585417E+00  4.84537201E+00
  4.88569123E+00  5.02898071E+00  5.10250283E+00  5.16107963E+00  5.17805410E+00
  5.23216697E+00  5.27823003E+00  5.31346989E+00  5.35274274E+00  5.42401045E+00
  5.58583565E+00  5.63813709E+00  5.73295137E+00  5.76369477E+00  6.23339661E+00
  6.36989135E+00  6.51277411E+00  6.56636284E+00  6.78485398E+00  6.78651434E+00
  6.91648007E+00  6.98553488E+00  7.15224804E+00  7.16472083E+00  7.27745746E+00
  7.29823702E+00  7.30122550E+00  7.32542168E+00  7.35047025E+00  7.36466975E+00
  7.38296789E+00  7.42607662E+00  7.45466839E+00  7.53542427E+00  7.58276033E+00
  7.72695381E+00  7.90965364E+00  7.93414350E+00  8.00486362E+00  8.07534959E+00
  8.86799935E+00  8.89632990E+00  1.57846620E+01  1.68782049E+01
Alpha MO coefficients                      R   N=       33856
  1.89062529E-07 -2.80245089E-04 -2.81057838E-04 -4.61140643E-05 -2.72286722E-06
 -7.48336733E-10  6.27849664E-06  8.39717151E-05 -1.13419281E-08  1.02262176E-04
 -4.88378882E-05 -6.66069477E-09  5.50365167E-05 -8.86722959E-06 -2.95639710E-06
  2.42163093E-09 -6.85900531E-06  4.03409410E-10 -1.93293589E-05 -1.85325199E-05
  1.14160335E-09  2.53440617E-05  1.76594134E-09 -5.65283057E-05 -2.46119833E-05
 -1.48864755E-05  5.64824014E-04  1.39502907E-04  5.18487280E-06  5.79732711E-10
 -4.79739359E-06 -8.11628605E-06 -4.75471437E-09  4.09235241E-05 -3.76688533E-04
 -3.03413820E-08  2.67195901E-04  1.75731714E-05 -1.56834839E-08  1.50446773E-04
  1.48798096E-06 -2.92762213E-06  2.07105578E-10 -4.53991375E-06  2.74300385E-10
 -4.32143804E-06  1.53766225E-05 -4.71015149E-09  4.98331915E-05 -1.55661240E-09
 -3.04580212E-05 -5.79267320E-05 -1.30386539E-08  1.73600397E-04  6.43322667E-09
 -2.37584567E-06  2.20635560E-06  1.32290789E-10  2.77669744E-06 -8.33738130E-10
  3.59625017E-06 -4.03330382E-10  1.75314775E-06  2.41102960E-05 -2.69967772E-09
  1.28174851E-05  1.42374408E-09 -4.30513109E-05 -1.58404664E-09  1.09157712E-05
 -6.94807123E-04 -4.36634272E-04  6.25406431E-05 -2.43905029E-05 -5.92280129E-10
  4.83842005E-06 -7.88637214E-06 -1.27049787E-09  1.40751822E-05  5.86044200E-04
  2.08384404E-08 -1.87544360E-04  1.10753765E-05  7.88898375E-07 -7.05693672E-11
 -1.71790207E-05 -1.04288940E-10 -3.36865841E-05  1.26298000E-05  4.92103229E-09
  3.16074649E-06 -4.39222978E-10  9.76689935E-01 -8.98906555E-03  4.36505976E-02
  1.28414541E-04  7.76878929E-04 -1.04870575E-03  1.41282364E-07 -1.45968851E-03
  8.73581932E-04 -1.22768274E-07  1.27423561E-03  4.43223888E-04 -7.01019756E-09
  6.55378257E-05  3.26000442E-05  1.84294842E-08 -2.03440597E-04 -2.51566237E-05
  4.73519124E-05  8.82951439E-09 -5.01229748E-05 -4.27785845E-09  1.92714170E-04
 -3.63502990E-04 -7.09801227E-08  4.18235580E-04  3.23747481E-08 -5.30905670E-05
  1.06616684E-04 -1.00412520E-08  2.01428148E-04 -9.76039106E-09  5.89831598E-06
  1.89008451E-05 -3.74607141E-09  1.57302364E-05 -3.07157807E-09  1.86926031E-06
 -1.94545292E-09 -1.24720080E-04 -2.63963262E-05  4.95908338E-08 -1.36827353E-04
  1.83366222E-08 -1.18814880E-04  1.71782646E-08  4.91366713E-04  1.47716024E-03
 -2.14451459E-04  2.09114161E-06  7.06714166E-05 -1.63371796E-04  8.54536148E-05
  4.12107023E-04 -7.47037567E-04  5.47798337E-04  6.38549029E-05 -1.30993919E-04
  1.05836925E-04  2.24131729E-07 -5.11729135E-05  8.13371420E-05  3.14283114E-05
  6.80618698E-05 -3.17995261E-05  1.53578583E-04 -3.05340488E-04 -1.88935381E-04
 -2.28541871E-04  4.91366667E-04  1.47716020E-03 -2.14449236E-04  2.09061385E-06
  7.06720909E-05  1.63355273E-04  8.54848139E-05  4.12111602E-04  7.46932299E-04
  5.47941468E-04  6.38569006E-05  1.30975234E-04  1.05861797E-04  1.97282247E-07
 -5.11862479E-05 -8.13427277E-05  3.14120868E-05 -6.80523223E-05 -3.16992052E-05
  1.53624071E-04  3.05386463E-04 -1.88874973E-04  2.28514730E-04  5.10913123E-04
  1.74977672E-03  1.31062798E-03 -5.32097236E-05 -9.58644771E-05  1.88685883E-08
 -1.68970952E-04 -1.17419429E-04  1.02794657E-07 -9.24520136E-04 -1.64802395E-04
  4.89658501E-08 -4.37371833E-04 -1.19661172E-04 -8.90721021E-05  2.45559252E-08
 -1.18957525E-05  9.98929345E-09  3.17353531E-04  1.25416190E-04 -6.21144777E-08
  8.10207553E-06 -1.39662967E-08  9.76646895E-01 -9.25356990E-03  4.36473407E-02
 -4.57204259E-05 -6.44223212E-04 -7.83665861E-04 -1.79425541E-07  1.61027460E-03
  8.05934869E-04  1.47689835E-07 -1.32809166E-03 -1.03925903E-03  5.94095055E-08
 -5.25140114E-04 -1.64382924E-05  2.28785493E-09 -1.88559814E-05  2.74155748E-05
  2.60211020E-05 -1.21512473E-08  6.17004479E-05 -2.96207535E-09 -2.03130408E-04
 -2.18318350E-04  8.57564785E-08 -4.14936673E-04  2.48962694E-08 -1.36810298E-04
 -3.30338181E-04  1.72758879E-08  8.35645141E-05  3.65453103E-08 -1.03521958E-05
  5.05493661E-05 -4.19951223E-10  1.82819491E-05 -6.20082072E-09 -2.00783384E-05
 -2.44878636E-09 -1.05268150E-05 -2.46356708E-04  2.73804263E-08 -1.38088684E-04
  3.50966557E-08  6.25415900E-05  1.88736477E-08  4.25337753E-04  5.64230478E-04
  1.27398215E-03  2.81342751E-04  1.39457240E-04  2.51803067E-09 -2.35794091E-05
  1.20842615E-03  1.87679789E-08 -1.76516794E-04 -1.23550032E-03  6.62091111E-09
 -6.23521167E-05  5.89022502E-05  7.71783213E-05  3.24884797E-09 -1.31382526E-04
 -8.57517283E-09 -6.87212631E-04 -3.15124066E-04 -3.18327019E-09  1.22080688E-03
  3.42395999E-08  6.90895847E-05  8.03743829E-05  7.07255400E-06 -5.50824976E-04
 -5.59599365E-04  6.17726120E-06  2.70815495E-10 -3.91553525E-06 -1.92096444E-05
 -1.35742665E-09  2.52781728E-05 -1.15509863E-03  2.53000622E-08 -2.04521891E-04
 -3.27882416E-04  3.60695064E-10  7.12793379E-07 -2.84437035E-06 -8.25555998E-06
  2.06091230E-11  4.71309643E-06  8.13115461E-10  3.30709455E-05  4.91500295E-05
 -2.91933007E-09 -3.41888652E-05 -5.37896652E-09  7.51484416E-05 -5.62561997E-06
 -1.89342586E-09 -1.26803394E-04  1.88939471E-09 -1.04062461E-05  1.15205691E-05
  1.75556168E-09  4.66390090E-06  8.75281959E-10 -2.14027768E-05 -5.63549379E-10
  3.79104461E-05 -2.37181090E-05 -2.22086057E-09 -4.34880042E-05 -2.99307348E-09
  5.67332109E-05  5.18718433E-09 -4.95825923E-06 -1.64960372E-04 -2.22889765E-04
 -7.34458756E-05  7.81135729E-06  1.82178265E-06 -3.95178125E-06  8.38108851E-05
  5.42094762E-05  5.13672829E-06 -2.98875361E-05  6.85799998E-05 -5.12268111E-05
 -1.75006485E-06  1.40049248E-06 -6.47150376E-06  1.51554284E-05 -7.04506445E-06
  8.83559096E-07  4.15958208E-05 -1.37753429E-06 -9.82073914E-06 -4.43180774E-05
 -4.95880794E-06 -1.64951140E-04 -2.22887143E-04 -7.34455878E-05  7.81125168E-06
 -1.82061134E-06 -3.95180479E-06  8.38129660E-05 -5.42082397E-05  5.12708795E-06
 -2.98879406E-05 -6.85694913E-05 -5.12398125E-05 -1.74824992E-06  1.40180043E-06
  6.46961566E-06  1.51567697E-05  7.04489930E-06  8.83914948E-07  4.16045795E-05
  1.37900688E-06 -9.82092033E-06  4.43097124E-05  6.30680640E-03  3.28639644E-03
 -2.15171596E-03  4.14627272E-04 -4.42437793E-04  8.01232662E-08 -7.16192417E-04
  9.98075739E-04 -4.99620610E-08  4.09804480E-04  8.23532324E-04 -5.76331138E-08
  4.26635093E-04  1.05134972E-05  4.28532946E-07  1.01457781E-09 -2.69170065E-05
  2.09784959E-10 -2.59782209E-04 -4.28816003E-04  6.17770503E-08 -7.09343431E-05
  4.87075297E-08 -1.57129545E-02  3.69246468E-02  1.00246056E-02  2.46934208E-02
  7.36693972E-04 -3.36316937E-03 -3.16122733E-07  2.85560468E-03 -3.98491860E-03
 -5.01806820E-07  4.51405676E-03 -7.27922232E-03 -1.58612111E-07  1.48655174E-03
 -3.53484500E-04 -1.64079053E-08  2.15586913E-04  6.05642452E-05 -1.23831571E-07
 -4.44876041E-08  2.93285717E-04 -4.96906562E-10  1.91406022E-04  3.69013586E-04
 -1.68705826E-07  1.18528688E-03 -4.09685400E-08 -9.76347937E-04 -9.32315086E-04
 -1.32653907E-08  1.87870080E-03  1.04363044E-07  8.30698981E-05  2.37118106E-04
 -3.68119174E-08  7.84431044E-05 -2.88364532E-08 -9.33762255E-05 -1.07654713E-08
  2.06596077E-04 -1.03507765E-06 -4.01622728E-08 -8.50173860E-05  3.61613803E-08
 -2.70530713E-04  1.22494415E-08  1.04215457E-02  2.30042323E-03  1.15372677E-03
 -2.41684654E-04  8.09799250E-04  1.94604192E-08 -1.80868591E-04 -6.12107860E-04
 -9.03124730E-08  8.32507974E-04  4.83531625E-03  7.75703365E-09 -6.61403629E-05
 -3.55275504E-04  2.35340182E-05  1.15359406E-08  5.12995357E-04 -2.86219766E-09
 -1.78182552E-03  5.37179237E-04  4.20305627E-08  2.61450252E-03 -6.04206929E-08
 -2.00923531E-01  4.86452196E-01  1.32226754E-01  2.91550148E-01  3.92683707E-02
 -2.49048668E-02  3.34413400E-06 -3.44630052E-02 -3.51755885E-02  4.74335348E-06
 -4.88778724E-02 -6.07052467E-03  1.13028952E-06 -1.18899469E-02 -8.15166900E-04
  2.44305224E-07 -2.62983973E-03 -8.22552506E-04  2.45573356E-03  3.77358669E-07
 -2.60013839E-03 -2.21254648E-07 -1.43829938E-03  6.75309897E-03  6.76828159E-07
 -4.79112384E-03 -6.16477304E-07  4.57303795E-04 -5.32921474E-04 -5.61928920E-07
  5.16614783E-03  3.05228448E-08  1.54091903E-03 -3.67716059E-04 -5.73564830E-07
  1.42752894E-03 -1.54471428E-07  1.74056987E-03 -1.79187368E-07  2.53644453E-04
 -9.53273587E-04  1.55941727E-08 -4.80555001E-04  7.32876635E-08  6.06709477E-04
  5.45729650E-08  8.68209517E-02  7.54984553E-02 -1.63188820E-02 -1.59022277E-03
  4.65778482E-03 -1.05769059E-02  5.84679467E-03  4.40380538E-03 -8.20303567E-03
  4.69788733E-03 -2.68173237E-03  5.23690034E-03 -3.37789053E-03 -4.30098245E-04