 Entering Gaussian System, Link 0=g09
 Input=water_OH_scan.gjf
 Output=water_OH_scan.log
 Initial command:
 /usr/local/gaussian/g09/l1.exe "/scratch/Gau-29662.inp" -scrdir="/scratch/"
 Entering Link 1 = /usr/local/gaussian/g09/l1.exe PID=     29663.
  
 Copyright (c) 1988,1990,1992,1993,1995,1998,2003,2009,2015,
            Gaussian, Inc.  All Rights Reserved.
  
 This is part of the Gaussian(R) 09 program.  It is based on
 the Gaussian(R) 03 system (copyright 2003, Gaussian, Inc.),
 the Gaussian(R) 98 system (copyright 1998, Gaussian, Inc.),
 the Gaussian(R) 94 system (copyright 1995, Gaussian, Inc.),
 the Gaussian 92(TM) system (copyright 1992, Gaussian, Inc.),
 the Gaussian 90(TM) system (copyright 1990, Gaussian, Inc.),
 the Gaussian 88(TM) system (copyright 1988, Gaussian, Inc.),
 the Gaussian 86(TM) system (copyright 1986, Carnegie Mellon
 University), and the Gaussian 82(TM) system (copyright 1983,
 Carnegie Mellon University). Gaussian is a federally registered
 trademark of Gaussian, Inc.
  
 This software contains proprietary and confidential information,
 including trade secrets, belonging to Gaussian, Inc.
  
 This software is provided under written license and may be
 used, copied, transmitted, or stored only in accord with that
 written license.
  
 The following legend is applicable only to US Government
 contracts under FAR:
  
                    RESTRICTED RIGHTS LEGEND
  
 Use, reproduction and disclosure by the US Government is
 subject to restrictions as set forth in subparagraphs (a)
 and (c) of the Commercial Computer Software - Restricted
 Rights clause in FAR 52.227-19.
  
 Gaussian, Inc.
 340 Quinnipiac St., Bldg. 40, Wallingford CT 06492
  
  
 ---------------------------------------------------------------
 Warning -- This program may not be used in any manner that
 competes with the business of Gaussian, Inc. or will provide
 assistance to any competitor of Gaussian, Inc.  The licensee
 of this program is prohibited from giving any competitor of
 Gaussian, Inc. access to this program.  By using this program,
 the user acknowledges that Gaussian, Inc. is engaged in the
 business of creating and licensing software in the field of
 computational chemistry and represents and warrants to the
 licensee that it is not a competitor of Gaussian, Inc. and that
 it will not use this program in any manner prohibited above.
 ---------------------------------------------------------------
  

 Cite this work as:
 Gaussian 09, Revision E.01,
 M. J. Frisch, G. W. Trucks, H. B. Schlegel, G. E. Scuseria, 
 M. A. Robb, J. R. Cheeseman, G. Scalmani, V. Barone, B. Mennucci, 
 G. A. Petersson, H. Nakatsuji, M. Caricato, X. Li, H. P. Hratchian, 
 A. F. Izmaylov, J. Bloino, G. Zheng, J. L. Sonnenberg, M. Hada, 
 M. Ehara, K. Toyota, R. Fukuda, J. Hasegawa, M. Ishida, T. Nakajima, 
 Y. Honda, O. Kitao, H. Nakai, T. Vreven, J. A. Montgomery, Jr., 
 J. E. Peralta, F. Ogliaro, M. Bearpark, J. J. Heyd, E. Brothers, 
 K. N. Kudin, V. N. Staroverov, T. Keith, R. Kobayashi, J. Normand, 
 K. Raghavachari, A. Rendell, J. C. Burant, S. S. Iyengar, J. Tomasi, 
 M. Cossi, N. Rega, J. M. Millam, M. Klene, J. E. Knox, J. B. Cross, 
 V. Bakken, C. Adamo, J. Jaramillo, R. Gomperts, R. E. Stratmann, 
 O. Yazyev, A. J. Austin, R. Cammi, C. Pomelli, J. W. Ochterski, 
 R. L. Martin, K. Morokuma, V. G. Zakrzewski, G. A. Voth, 
 P. Salvador, J. J. Dannenberg, S. Dapprich, A. D. Daniels, 
 O. Farkas, J. B. Foresman, J. V. Ortiz, J. Cioslowski, 
 and D. J. Fox, Gaussian, Inc., Wallingford CT, 2013.
 
 ******************************************
 Gaussian 09:  ES64L-G09RevE.01 30-Nov-2015
                15-Jun-2018 
 ******************************************
 %Chk=water_OH_scan.chk
 %NProc=8
 Will use up to    8 processors via shared memory.
 %Mem=1000MB
 ---------------------------------------
 #MP2/aug-cc-pvdz #Density=current #Scan
 ---------------------------------------
 1/38=1/1,8;
 2/12=2,17=6,18=5,29=3,40=1/2;
 3/5=16,7=10,11=9,16=1,25=1,30=1,71=1/1,2,3;
 4//1;
 5/5=2,38=5/2;
 8/6=4,10=1/1;
 9/15=1,16=-3/6;
 10/5=1/2;
 6/7=2,8=2,9=2,10=2,18=1,22=-1/1;
 1//8(1);
 99/9=1/99;
 2/29=3/2;
 3/5=16,7=10,11=9,16=1,25=1,30=1,71=1/1,2,3;
 4/5=5,16=3,69=1/1;
 5/5=2,38=5/2;
 8/6=4,10=1/1;
 9/15=1,16=-3/6;
 10/5=1/2;
 6/7=2,8=2,9=2,10=2,18=1,22=-1/1;
 1//8(-8);
 99/9=1/99;
 ------------------------------
 Scan of water OH bond distance
 ------------------------------
 Symbolic Z-matrix:
 Charge =  0 Multiplicity = 1
 O
 H                    1    R
 H                    1    R2       2    A
       Variables:
  R                     0.56593250        0.005  
  R2                    0.96593 0         0.     
  A                   103.87321 0         0.     
 
 Scan the potential surface.
 Variable   Value     No. Steps Step-Size
 -------- ----------- --------- ---------
     1       0.565929     250      0.0050
 A total of    251 points will be computed.
 ---------------------------------------------------------------------------------------------------
                            Z-MATRIX (ANGSTROMS AND DEGREES)
   CD    Cent   Atom    N1       Length/X        N2       Alpha/Y        N3        Beta/Z          J
 ---------------------------------------------------------------------------------------------------
      1      1  O 
      2      2  H        1   0.565929(     1)
      3      3  H        1   0.965929(     2)      2  103.873(     3)
 ---------------------------------------------------------------------------------------------------
                         Z-Matrix orientation:                         
 ---------------------------------------------------------------------
 Center     Atomic      Atomic             Coordinates (Angstroms)
 Number     Number       Type             X           Y           Z
 ---------------------------------------------------------------------
      1          8           0        0.000000    0.000000    0.000000
      2          1           0        0.000000    0.000000    0.565929
      3          1           0        0.937752    0.000000   -0.231605
 ---------------------------------------------------------------------
                    Distance matrix (angstroms):
                    1          2          3
     1  O    0.000000
     2  H    0.565929   0.000000
     3  H    0.965929   1.231031   0.000000
 Stoichiometry    H2O
 Framework group  CS[SG(H2O)]
 Deg. of freedom     3
 Full point group                 CS      NOp   2
 Largest Abelian subgroup         CS      NOp   2
 Largest concise Abelian subgroup C1      NOp   1
                         Standard orientation:                         
 ---------------------------------------------------------------------
 Center     Atomic      Atomic             Coordinates (Angstroms)
 Number     Number       Type             X           Y           Z
 ---------------------------------------------------------------------
      1          8           0        0.000000    0.099557   -0.000000
      2          1           0        0.533065   -0.090490   -0.000000
      3          1           0       -0.533065   -0.705962    0.000000
 ---------------------------------------------------------------------
 Rotational constants (GHZ):   1861.3399291    540.1128809    418.6356139
 Standard basis: Aug-CC-pVDZ (5D, 7F)
 There are    32 symmetry adapted cartesian basis functions of A'  symmetry.
 There are    11 symmetry adapted cartesian basis functions of A"  symmetry.
 There are    30 symmetry adapted basis functions of A'  symmetry.
 There are    11 symmetry adapted basis functions of A"  symmetry.
    41 basis functions,    65 primitive gaussians,    43 cartesian basis functions
     5 alpha electrons        5 beta electrons
       nuclear repulsion energy        12.2930837155 Hartrees.
 NAtoms=    3 NActive=    3 NUniq=    3 SFac= 1.00D+00 NAtFMM=   60 NAOKFM=F Big=F
 Integral buffers will be    131072 words long.
 Raffenetti 1 integral format.
 Two-electron integral symmetry is turned on.
 One-electron integrals computed using PRISM.
 NBasis=    41 RedAO= T EigKep=  1.60D-03  NBF=    30    11
 NBsUse=    41 1.00D-06 EigRej= -1.00D+00 NBFU=    30    11
 ExpMin= 2.97D-02 ExpMax= 1.17D+04 ExpMxC= 4.01D+02 IAcc=3 IRadAn=         5 AccDes= 0.00D+00
 Harris functional with IExCor=  205 and IRadAn=       5 diagonalized for initial guess.
 HarFok:  IExCor=  205 AccDes= 0.00D+00 IRadAn=         5 IDoV= 1 UseB2=F ITyADJ=14
 ICtDFT=  3500011 ScaDFX=  1.000000  1.000000  1.000000  1.000000
 FoFCou: FMM=F IPFlag=           0 FMFlag=      100000 FMFlg1=           0
         NFxFlg=           0 DoJE=T BraDBF=F KetDBF=T FulRan=T
         wScrn=  0.000000 ICntrl=     500 IOpCl=  0 I1Cent=   200000004 NGrid=           0
         NMat0=    1 NMatS0=      1 NMatT0=    0 NMatD0=    1 NMtDS0=    0 NMtDT0=    0
 Petite list used in FoFCou.
 Initial guess orbital symmetries:
       Occupied  (A') (A') (A') (A') (A")
       Virtual   (A') (A') (A') (A") (A') (A') (A') (A') (A") (A')
                 (A") (A') (A') (A') (A') (A') (A") (A') (A") (A')
                 (A') (A") (A') (A") (A') (A') (A") (A') (A') (A')
                 (A") (A') (A") (A') (A') (A')
 The electronic state of the initial guess is 1-A'.
 Keep R1 ints in memory in symmetry-blocked form, NReq=1235048.
 Requested convergence on RMS density matrix=1.00D-08 within 128 cycles.
 Requested convergence on MAX density matrix=1.00D-06.
 Requested convergence on             energy=1.00D-06.
 No special actions if energy rises.
 SCF Done:  E(RHF) =  -75.5899072644     A.U. after   10 cycles
            NFock= 10  Conv=0.49D-08     -V/T= 1.9739
 ExpMin= 2.97D-02 ExpMax= 1.17D+04 ExpMxC= 4.01D+02 IAcc=3 IRadAn=         5 AccDes= 0.00D+00
 HarFok:  IExCor=  205 AccDes= 0.00D+00 IRadAn=         5 IDoV=-2 UseB2=F ITyADJ=14
 ICtDFT= 12500011 ScaDFX=  1.000000  1.000000  1.000000  1.000000
 Range of M.O.s used for correlation:     2    41
 NBasis=    41 NAE=     5 NBE=     5 NFC=     1 NFV=     0
 NROrb=     40 NOA=     4 NOB=     4 NVA=    36 NVB=    36

 **** Warning!!: The largest alpha MO coefficient is  0.11254783D+02

 Fully in-core method, ICMem=     7167802.
 JobTyp=1 Pass  1 fully in-core, NPsUse=  8.
 Spin components of T(2) and E(2):
     alpha-alpha T2 =       0.6247583080D-02 E2=     -0.2574826435D-01
     alpha-beta  T2 =       0.3547273663D-01 E2=     -0.1502755727D+00
     beta-beta   T2 =       0.6247583080D-02 E2=     -0.2574826435D-01
 ANorm=    0.1023703034D+01
 E2 =    -0.2017721014D+00 EUMP2 =    -0.75791679365737D+02
          IDoAtm=111
          Differentiating once with respect to electric field.
                with respect to dipole field.
          Differentiating once with respect to nuclear coordinates.
 Keep R1 ints in memory in symmetry-blocked form, NReq=1217974.
          There are     1 degrees of freedom in the 1st order CPHF.  IDoFFX=0 NUNeed=     1.
 LinEq1:  Iter=  0 NonCon=     1 RMS=6.82D-03 Max=4.98D-02 NDo=     1
 AX will form     1 AO Fock derivatives at one time.
 LinEq1:  Iter=  1 NonCon=     1 RMS=1.53D-03 Max=6.00D-03 NDo=     1
 LinEq1:  Iter=  2 NonCon=     1 RMS=4.44D-04 Max=2.64D-03 NDo=     1
 LinEq1:  Iter=  3 NonCon=     1 RMS=5.54D-05 Max=2.29D-04 NDo=     1
 LinEq1:  Iter=  4 NonCon=     1 RMS=1.02D-05 Max=4.42D-05 NDo=     1
 LinEq1:  Iter=  5 NonCon=     1 RMS=1.69D-06 Max=6.69D-06 NDo=     1
 LinEq1:  Iter=  6 NonCon=     1 RMS=2.01D-07 Max=7.96D-07 NDo=     1
 LinEq1:  Iter=  7 NonCon=     1 RMS=2.06D-08 Max=9.70D-08 NDo=     1
 LinEq1:  Iter=  8 NonCon=     1 RMS=3.68D-09 Max=1.22D-08 NDo=     1
 LinEq1:  Iter=  9 NonCon=     1 RMS=5.32D-10 Max=2.40D-09 NDo=     1
 LinEq1:  Iter= 10 NonCon=     0 RMS=4.84D-11 Max=2.04D-10 NDo=     1
 Linear equations converged to 1.000D-10 1.000D-09 after    10 iterations.
 End of Minotr F.D. properties file   721 does not exist.
 End of Minotr F.D. properties file   722 does not exist.
 End of Minotr F.D. properties file   788 does not exist.

 **********************************************************************

            Population analysis using the MP2 density.

 **********************************************************************

 Orbital symmetries:
       Occupied  (A') (A') (A') (A') (A")
       Virtual   (A') (A') (A') (A") (A') (A') (A') (A') (A") (A')
                 (A") (A') (A') (A') (A') (A') (A") (A') (A") (A')
                 (A') (A") (A') (A") (A') (A') (A') (A") (A') (A')
                 (A") (A') (A") (A') (A') (A')
 The electronic state is 1-A'.
 Alpha  occ. eigenvalues --  -20.54509  -1.53378  -0.82923  -0.61555  -0.53330
 Alpha virt. eigenvalues --    0.03623   0.05912   0.16391   0.18296   0.21900
 Alpha virt. eigenvalues --    0.22782   0.30551   0.37278   0.38925   0.45162
 Alpha virt. eigenvalues --    0.48008   0.56858   0.63168   0.66320   0.86228
 Alpha virt. eigenvalues --    1.05352   1.07102   1.13783   1.15807   1.38705
 Alpha virt. eigenvalues --    1.45187   1.52194   1.91850   2.04248   2.11412
 Alpha virt. eigenvalues --    2.45908   2.53488   2.54967   2.67638   2.98521
 Alpha virt. eigenvalues --    3.66088   3.73114   3.83865   3.87022   4.17584
 Alpha virt. eigenvalues --    5.89842
          Condensed to atoms (all electrons):
               1          2          3
     1  O    7.262772   0.043694   0.427663
     2  H    0.043694   1.484199  -0.193406
     3  H    0.427663  -0.193406   0.697128
 Mulliken charges:
               1
     1  O    0.265871
     2  H   -0.334487
     3  H    0.068615
 Sum of Mulliken charges =  -0.00000
 Mulliken charges with hydrogens summed into heavy atoms:
               1
     1  O   -0.000000
 Electronic spatial extent (au):  <R**2>=             17.6246
 Charge=             -0.0000 electrons
 Dipole moment (field-independent basis, Debye):
    X=              0.2505    Y=             -1.8296    Z=              0.0000  Tot=              1.8466
 Quadrupole moment (field-independent basis, Debye-Ang):
   XX=             -5.1087   YY=             -5.7649   ZZ=             -7.2884
   XY=              0.7942   XZ=             -0.0000   YZ=             -0.0000
 Traceless Quadrupole moment (field-independent basis, Debye-Ang):
   XX=              0.9453   YY=              0.2891   ZZ=             -1.2344
   XY=              0.7942   XZ=             -0.0000   YZ=             -0.0000
 Octapole moment (field-independent basis, Debye-Ang**2):
  XXX=              0.5754  YYY=             -1.5773  ZZZ=             -0.0000  XYY=             -0.3311
  XXY=             -0.7529  XXZ=              0.0000  XZZ=              0.2314  YZZ=             -0.2981
  YYZ=              0.0000  XYZ=              0.0000
 Hexadecapole moment (field-independent basis, Debye-Ang**3):
 XXXX=             -5.2143 YYYY=             -6.7733 ZZZZ=             -6.8255 XXXY=             -0.0577
 XXXZ=              0.0000 YYYX=              0.1285 YYYZ=              0.0000 ZZZX=              0.0000
 ZZZY=              0.0000 XXYY=             -1.7676 XXZZ=             -2.0905 YYZZ=             -2.3818
 XXYZ=              0.0000 YYXZ=             -0.0000 ZZXY=             -0.1296
 N-N= 1.229308371546D+01 E-N=-2.049988096481D+02  KE= 7.767576591382D+01
 Symmetry A'   KE= 7.315793762421D+01
 Symmetry A"   KE= 4.517828289612D+00
 Variable Step   Value    
 -------- ---- -----------
     1       1    1.078899
 ---------------------------------------------------------------------------------------------------
                            Z-MATRIX (ANGSTROMS AND DEGREES)
   CD    Cent   Atom    N1       Length/X        N2       Alpha/Y        N3        Beta/Z          J
 ---------------------------------------------------------------------------------------------------
      1      1  O 
      2      2  H        1   0.570929(     1)
      3      3  H        1   0.965929(     2)      2  103.873(     3)
 ---------------------------------------------------------------------------------------------------
                         Z-Matrix orientation:                         
 ---------------------------------------------------------------------
 Center     Atomic      Atomic             Coordinates (Angstroms)
 Number     Number       Type             X           Y           Z
 ---------------------------------------------------------------------
      1          8           0        0.000000    0.000000    0.000000
      2          1           0        0.000000    0.000000    0.570929
      3          1           0        0.937752    0.000000   -0.231605
 ---------------------------------------------------------------------
                    Distance matrix (angstroms):
                    1          2          3
     1  O    0.000000
     2  H    0.570929   0.000000
     3  H    0.965929   1.234276   0.000000
 Stoichiometry    H2O
 Framework group  CS[SG(H2O)]
 Deg. of freedom     3
 Full point group                 CS      NOp   2
 Largest Abelian subgroup         CS      NOp   2
 Largest concise Abelian subgroup C1      NOp   1
                         Standard orientation:                         
 ---------------------------------------------------------------------
 Center     Atomic      Atomic             Coordinates (Angstroms)
 Number     Number       Type             X           Y           Z
 ---------------------------------------------------------------------
      1          8           0        0.000000    0.099726    0.000000
      2          1           0        0.536863   -0.094538    0.000000
      3          1           0       -0.536863   -0.703267   -0.000000
 ---------------------------------------------------------------------
 Rotational constants (GHZ):   1830.8767905    539.5240387    416.7236309
 Standard basis: Aug-CC-pVDZ (5D, 7F)
 There are    32 symmetry adapted cartesian basis functions of A'  symmetry.
 There are    11 symmetry adapted cartesian basis functions of A"  symmetry.
 There are    30 symmetry adapted basis functions of A'  symmetry.
 There are    11 symmetry adapted basis functions of A"  symmetry.
    41 basis functions,    65 primitive gaussians,    43 cartesian basis functions
     5 alpha electrons        5 beta electrons
       nuclear repulsion energy        12.2264420599 Hartrees.
 NAtoms=    3 NActive=    3 NUniq=    3 SFac= 1.00D+00 NAtFMM=   60 NAOKFM=F Big=F
 Integral buffers will be    131072 words long.
 Raffenetti 1 integral format.
 Two-electron integral symmetry is turned on.
 One-electron integrals computed using PRISM.
 NBasis=    41 RedAO= T EigKep=  1.62D-03  NBF=    30    11
 NBsUse=    41 1.00D-06 EigRej= -1.00D+00 NBFU=    30    11
 Initial guess from the checkpoint file:  "water_OH_scan.chk"
 B after Tr=    -0.000000    0.000000    0.000000
         Rot=    0.999997    0.000000    0.000000    0.002564 Ang=   0.29 deg.
 Initial guess orbital symmetries:
       Occupied  (A') (A') (A') (A') (A")
       Virtual   (A') (A') (A') (A') (A') (A') (A') (A') (A') (A')
                 (A') (A') (A') (A') (A') (A') (A') (A') (A') (A')
                 (A') (A') (A') (A') (A') (A') (A") (A") (A") (A")
                 (A") (A") (A") (A") (A") (A")
 ExpMin= 2.97D-02 ExpMax= 1.17D+04 ExpMxC= 4.01D+02 IAcc=3 IRadAn=         5 AccDes= 0.00D+00
 Harris functional with IExCor=  205 and IRadAn=       5 diagonalized for initial guess.
 HarFok:  IExCor=  205 AccDes= 0.00D+00 IRadAn=         5 IDoV= 1 UseB2=F ITyADJ=14
 ICtDFT=  3500011 ScaDFX=  1.000000  1.000000  1.000000  1.000000
 FoFCou: FMM=F IPFlag=           0 FMFlag=      100000 FMFlg1=           0
         NFxFlg=           0 DoJE=T BraDBF=F KetDBF=T FulRan=T
         wScrn=  0.000000 ICntrl=     500 IOpCl=  0 I1Cent=   200000004 NGrid=           0
         NMat0=    1 NMatS0=      1 NMatT0=    0 NMatD0=    1 NMtDS0=    0 NMtDT0=    0
 Petite list used in FoFCou.
 Keep R1 ints in memory in symmetry-blocked form, NReq=1235048.
 Requested convergence on RMS density matrix=1.00D-08 within 128 cycles.
 Requested convergence on MAX density matrix=1.00D-06.
 Requested convergence on             energy=1.00D-06.
 No special actions if energy rises.
 SCF Done:  E(RHF) =  -75.6090149967     A.U. after    8 cycles
            NFock=  8  Conv=0.41D-08     -V/T= 1.9746
 ExpMin= 2.97D-02 ExpMax= 1.17D+04 ExpMxC= 4.01D+02 IAcc=3 IRadAn=         5 AccDes= 0.00D+00
 HarFok:  IExCor=  205 AccDes= 0.00D+00 IRadAn=         5 IDoV=-2 UseB2=F ITyADJ=14
 ICtDFT= 12500011 ScaDFX=  1.000000  1.000000  1.000000  1.000000
 Range of M.O.s used for correlation:     2    41
 NBasis=    41 NAE=     5 NBE=     5 NFC=     1 NFV=     0
 NROrb=     40 NOA=     4 NOB=     4 NVA=    36 NVB=    36

 **** Warning!!: The largest alpha MO coefficient is  0.11245769D+02

 Fully in-core method, ICMem=     7167802.
 JobTyp=1 Pass  1 fully in-core, NPsUse=  8.
 Spin components of T(2) and E(2):
     alpha-alpha T2 =       0.6264831809D-02 E2=     -0.2578220154D-01
     alpha-beta  T2 =       0.3555934498D-01 E2=     -0.1504771046D+00
     beta-beta   T2 =       0.6264831809D-02 E2=     -0.2578220154D-01
 ANorm=    0.1023762184D+01
 E2 =    -0.2020415076D+00 EUMP2 =    -0.75811056504356D+02
          IDoAtm=111
          Differentiating once with respect to electric field.
                with respect to dipole field.
          Differentiating once with respect to nuclear coordinates.
 Keep R1 ints in memory in symmetry-blocked form, NReq=1217974.
          There are     1 degrees of freedom in the 1st order CPHF.  IDoFFX=0 NUNeed=     1.
 LinEq1:  Iter=  0 NonCon=     1 RMS=6.83D-03 Max=4.99D-02 NDo=     1
 AX will form     1 AO Fock derivatives at one time.
 LinEq1:  Iter=  1 NonCon=     1 RMS=1.53D-03 Max=6.02D-03 NDo=     1
 LinEq1:  Iter=  2 NonCon=     1 RMS=4.45D-04 Max=2.65D-03 NDo=     1
 LinEq1:  Iter=  3 NonCon=     1 RMS=5.53D-05 Max=2.28D-04 NDo=     1
 LinEq1:  Iter=  4 NonCon=     1 RMS=1.01D-05 Max=4.42D-05 NDo=     1
 LinEq1:  Iter=  5 NonCon=     1 RMS=1.69D-06 Max=6.63D-06 NDo=     1
 LinEq1:  Iter=  6 NonCon=     1 RMS=2.01D-07 Max=7.96D-07 NDo=     1
 LinEq1:  Iter=  7 NonCon=     1 RMS=2.05D-08 Max=9.63D-08 NDo=     1
 LinEq1:  Iter=  8 NonCon=     1 RMS=3.67D-09 Max=1.24D-08 NDo=     1
 LinEq1:  Iter=  9 NonCon=     1 RMS=5.33D-10 Max=2.40D-09 NDo=     1
 LinEq1:  Iter= 10 NonCon=     0 RMS=4.84D-11 Max=2.02D-10 NDo=     1
 Linear equations converged to 1.000D-10 1.000D-09 after    10 iterations.
 End of Minotr F.D. properties file   721 does not exist.
 End of Minotr F.D. properties file   722 does not exist.
 End of Minotr F.D. properties file   788 does not exist.

 **********************************************************************

            Population analysis using the MP2 density.

 **********************************************************************

 Orbital symmetries:
       Occupied  (A') (A') (A') (A') (A")
       Virtual   (A') (A') (A') (A") (A') (A') (A') (A') (A") (A')
                 (A") (A') (A') (A') (A') (A') (A") (A') (A") (A')
                 (A') (A") (A') (A") (A') (A') (A') (A") (A') (A')
                 (A") (A') (A") (A') (A') (A')
 The electronic state is 1-A'.
 Alpha  occ. eigenvalues --  -20.54484  -1.53060  -0.82794  -0.61520  -0.53288
 Alpha virt. eigenvalues --    0.03624   0.05910   0.16410   0.18320   0.21917
 Alpha virt. eigenvalues --    0.22782   0.30555   0.37249   0.38928   0.45078
 Alpha virt. eigenvalues --    0.47932   0.56827   0.63201   0.66319   0.86218
 Alpha virt. eigenvalues --    1.05345   1.07152   1.13687   1.15800   1.38670
 Alpha virt. eigenvalues --    1.45152   1.52196   1.91244   2.04244   2.11394
 Alpha virt. eigenvalues --    2.46037   2.53198   2.53873   2.67241   2.98201
 Alpha virt. eigenvalues --    3.66101   3.72308   3.83548   3.86534   4.17237
 Alpha virt. eigenvalues --    5.83614
          Condensed to atoms (all electrons):
               1          2          3
     1  O    7.255013   0.062352   0.424146
     2  H    0.062352   1.456774  -0.190372
     3  H    0.424146  -0.190372   0.695961
 Mulliken charges:
               1
     1  O    0.258489
     2  H   -0.328754
     3  H    0.070265
 Sum of Mulliken charges =   0.00000
 Mulliken charges with hydrogens summed into heavy atoms:
               1
     1  O    0.000000
 Electronic spatial extent (au):  <R**2>=             17.6570
 Charge=              0.0000 electrons
 Dipole moment (field-independent basis, Debye):
    X=              0.2463    Y=             -1.8295    Z=             -0.0000  Tot=              1.8460
 Quadrupole moment (field-independent basis, Debye-Ang):
   XX=             -5.1018   YY=             -5.7809   ZZ=             -7.2971
   XY=              0.7903   XZ=              0.0000   YZ=              0.0000
 Traceless Quadrupole moment (field-independent basis, Debye-Ang):
   XX=              0.9581   YY=              0.2790   ZZ=             -1.2371
   XY=              0.7903   XZ=              0.0000   YZ=              0.0000
 Octapole moment (field-independent basis, Debye-Ang**2):
  XXX=              0.5681  YYY=             -1.5690  ZZZ=              0.0000  XYY=             -0.3314
  XXY=             -0.7598  XXZ=             -0.0000  XZZ=              0.2292  YZZ=             -0.2986
  YYZ=             -0.0000  XYZ=             -0.0000
 Hexadecapole moment (field-independent basis, Debye-Ang**3):
 XXXX=             -5.2344 YYYY=             -6.7896 ZZZZ=             -6.8387 XXXY=             -0.0559
 XXXZ=             -0.0000 YYYX=              0.1241 YYYZ=             -0.0000 ZZZX=             -0.0000
 ZZZY=             -0.0000 XXYY=             -1.7720 XXZZ=             -2.0985 YYZZ=             -2.3849
 XXYZ=             -0.0000 YYXZ=              0.0000 ZZXY=             -0.1299
 N-N= 1.222644205993D+01 E-N=-2.048770851794D+02  KE= 7.763794617196D+01
 Symmetry A'   KE= 7.312421303524D+01
 Symmetry A"   KE= 4.513733136724D+00
 Variable Step   Value    
 -------- ---- -----------
     1       2    1.088348
 ---------------------------------------------------------------------------------------------------
                            Z-MATRIX (ANGSTROMS AND DEGREES)
   CD    Cent   Atom    N1       Length/X        N2       Alpha/Y        N3        Beta/Z          J
 ---------------------------------------------------------------------------------------------------
      1      1  O 
      2      2  H        1   0.575929(     1)
      3      3  H        1   0.965929(     2)      2  103.873(     3)
 ---------------------------------------------------------------------------------------------------
                         Z-Matrix orientation:                         
 ---------------------------------------------------------------------
 Center     Atomic      Atomic             Coordinates (Angstroms)
 Number     Number       Type             X           Y           Z
 ---------------------------------------------------------------------
      1          8           0        0.000000    0.000000    0.000000
      2          1           0        0.000000    0.000000    0.575929
      3          1           0        0.937752    0.000000   -0.231605
 ---------------------------------------------------------------------
                    Distance matrix (angstroms):
                    1          2          3
     1  O    0.000000
     2  H    0.575929   0.000000
     3  H    0.965929   1.237533   0.000000
 Stoichiometry    H2O
 Framework group  CS[SG(H2O)]
 Deg. of freedom     3
 Full point group                 CS      NOp   2
 Largest Abelian subgroup         CS      NOp   2
 Largest concise Abelian subgroup C1      NOp   1
                         Standard orientation:                         
 ---------------------------------------------------------------------
 Center     Atomic      Atomic             Coordinates (Angstroms)
 Number     Number       Type             X           Y           Z
 ---------------------------------------------------------------------
      1          8           0        0.000000    0.099897   -0.000000
      2          1           0        0.540636   -0.098614   -0.000000
      3          1           0       -0.540636   -0.700560    0.000000
 ---------------------------------------------------------------------
 Rotational constants (GHZ):   1801.2277883    538.9240827    414.8128357
 Standard basis: Aug-CC-pVDZ (5D, 7F)
 There are    32 symmetry adapted cartesian basis functions of A'  symmetry.
 There are    11 symmetry adapted cartesian basis functions of A"  symmetry.
 There are    30 symmetry adapted basis functions of A'  symmetry.
 There are    11 symmetry adapted basis functions of A"  symmetry.
    41 basis functions,    65 primitive gaussians,    43 cartesian basis functions
     5 alpha electrons        5 beta electrons
       nuclear repulsion energy        12.1609397840 Hartrees.
 NAtoms=    3 NActive=    3 NUniq=    3 SFac= 1.00D+00 NAtFMM=   60 NAOKFM=F Big=F
 Integral buffers will be    131072 words long.
 Raffenetti 1 integral format.
 Two-electron integral symmetry is turned on.
 One-electron integrals computed using PRISM.
 NBasis=    41 RedAO= T EigKep=  1.63D-03  NBF=    30    11
 NBsUse=    41 1.00D-06 EigRej= -1.00D+00 NBFU=    30    11
 Initial guess from the checkpoint file:  "water_OH_scan.chk"
 B after Tr=     0.000000   -0.000000   -0.000000
         Rot=    0.999997   -0.000000    0.000000    0.002555 Ang=   0.29 deg.
 Initial guess orbital symmetries:
       Occupied  (A') (A') (A') (A') (A")
       Virtual   (A') (A') (A') (A') (A') (A') (A') (A') (A') (A')
                 (A') (A') (A') (A') (A') (A') (A') (A') (A') (A')
                 (A') (A') (A') (A') (A') (A') (A") (A") (A") (A")
                 (A") (A") (A") (A") (A") (A")
 ExpMin= 2.97D-02 ExpMax= 1.17D+04 ExpMxC= 4.01D+02 IAcc=3 IRadAn=         5 AccDes= 0.00D+00
 Harris functional with IExCor=  205 and IRadAn=       5 diagonalized for initial guess.
 HarFok:  IExCor=  205 AccDes= 0.00D+00 IRadAn=         5 IDoV= 1 UseB2=F ITyADJ=14
 ICtDFT=  3500011 ScaDFX=  1.000000  1.000000  1.000000  1.000000
 FoFCou: FMM=F IPFlag=           0 FMFlag=      100000 FMFlg1=           0
         NFxFlg=           0 DoJE=T BraDBF=F KetDBF=T FulRan=T
         wScrn=  0.000000 ICntrl=     500 IOpCl=  0 I1Cent=   200000004 NGrid=           0
         NMat0=    1 NMatS0=      1 NMatT0=    0 NMatD0=    1 NMtDS0=    0 NMtDT0=    0
 Petite list used in FoFCou.
 Keep R1 ints in memory in symmetry-blocked form, NReq=1235048.
 Requested convergence on RMS density matrix=1.00D-08 within 128 cycles.
 Requested convergence on MAX density matrix=1.00D-06.
 Requested convergence on             energy=1.00D-06.
 No special actions if energy rises.
 SCF Done:  E(RHF) =  -75.6274200227     A.U. after    8 cycles
            NFock=  8  Conv=0.41D-08     -V/T= 1.9754
 ExpMin= 2.97D-02 ExpMax= 1.17D+04 ExpMxC= 4.01D+02 IAcc=3 IRadAn=         5 AccDes= 0.00D+00
 HarFok:  IExCor=  205 AccDes= 0.00D+00 IRadAn=         5 IDoV=-2 UseB2=F ITyADJ=14
 ICtDFT= 12500011 ScaDFX=  1.000000  1.000000  1.000000  1.000000
 Range of M.O.s used for correlation:     2    41
 NBasis=    41 NAE=     5 NBE=     5 NFC=     1 NFV=     0
 NROrb=     40 NOA=     4 NOB=     4 NVA=    36 NVB=    36

 **** Warning!!: The largest alpha MO coefficient is  0.11234709D+02

 Fully in-core method, ICMem=     7167802.
 JobTyp=1 Pass  1 fully in-core, NPsUse=  8.
 Spin components of T(2) and E(2):
     alpha-alpha T2 =       0.6282145464D-02 E2=     -0.2581595388D-01
     alpha-beta  T2 =       0.3564637470D-01 E2=     -0.1506775014D+00
     beta-beta   T2 =       0.6282145464D-02 E2=     -0.2581595388D-01
 ANorm=    0.1023821599D+01
 E2 =    -0.2023094092D+00 EUMP2 =    -0.75829729431898D+02
          IDoAtm=111
          Differentiating once with respect to electric field.
                with respect to dipole field.
          Differentiating once with respect to nuclear coordinates.
 Keep R1 ints in memory in symmetry-blocked form, NReq=1217974.
          There are     1 degrees of freedom in the 1st order CPHF.  IDoFFX=0 NUNeed=     1.
 LinEq1:  Iter=  0 NonCon=     1 RMS=6.83D-03 Max=5.00D-02 NDo=     1
 AX will form     1 AO Fock derivatives at one time.
 LinEq1:  Iter=  1 NonCon=     1 RMS=1.53D-03 Max=6.04D-03 NDo=     1
 LinEq1:  Iter=  2 NonCon=     1 RMS=4.47D-04 Max=2.67D-03 NDo=     1
 LinEq1:  Iter=  3 NonCon=     1 RMS=5.53D-05 Max=2.27D-04 NDo=     1
 LinEq1:  Iter=  4 NonCon=     1 RMS=1.01D-05 Max=4.41D-05 NDo=     1
 LinEq1:  Iter=  5 NonCon=     1 RMS=1.69D-06 Max=6.58D-06 NDo=     1
 LinEq1:  Iter=  6 NonCon=     1 RMS=2.01D-07 Max=7.95D-07 NDo=     1
 LinEq1:  Iter=  7 NonCon=     1 RMS=2.05D-08 Max=9.56D-08 NDo=     1
 LinEq1:  Iter=  8 NonCon=     1 RMS=3.65D-09 Max=1.26D-08 NDo=     1
 LinEq1:  Iter=  9 NonCon=     1 RMS=5.35D-10 Max=2.39D-09 NDo=     1
 LinEq1:  Iter= 10 NonCon=     0 RMS=4.85D-11 Max=2.02D-10 NDo=     1
 Linear equations converged to 1.000D-10 1.000D-09 after    10 iterations.
 End of Minotr F.D. properties file   721 does not exist.
 End of Minotr F.D. properties file   722 does not exist.
 End of Minotr F.D. properties file   788 does not exist.

 **********************************************************************

            Population analysis using the MP2 density.

 **********************************************************************

 Orbital symmetries:
       Occupied  (A') (A') (A') (A') (A")
       Virtual   (A') (A') (A') (A") (A') (A') (A') (A') (A") (A')
                 (A") (A') (A') (A') (A') (A') (A") (A') (A") (A')
                 (A') (A") (A') (A") (A') (A') (A") (A') (A') (A')
                 (A") (A') (A") (A') (A') (A')
 The electronic state is 1-A'.
 Alpha  occ. eigenvalues --  -20.54464  -1.52742  -0.82663  -0.61486  -0.53247
 Alpha virt. eigenvalues --    0.03625   0.05908   0.16429   0.18344   0.21934
 Alpha virt. eigenvalues --    0.22782   0.30560   0.37219   0.38930   0.44994
 Alpha virt. eigenvalues --    0.47857   0.56796   0.63233   0.66318   0.86206
 Alpha virt. eigenvalues --    1.05333   1.07202   1.13590   1.15792   1.38633
 Alpha virt. eigenvalues --    1.45118   1.52196   1.90632   2.04240   2.11373
 Alpha virt. eigenvalues --    2.46165   2.52798   2.52905   2.66874   2.97892
 Alpha virt. eigenvalues --    3.66114   3.71473   3.83237   3.86055   4.16900
 Alpha virt. eigenvalues --    5.77631
          Condensed to atoms (all electrons):
               1          2          3
     1  O    7.248045   0.080204   0.420685
     2  H    0.080204   1.430113  -0.187356
     3  H    0.420685  -0.187356   0.694776
 Mulliken charges:
               1
     1  O    0.251066
     2  H   -0.322961
     3  H    0.071895
 Sum of Mulliken charges =   0.00000
 Mulliken charges with hydrogens summed into heavy atoms:
               1
     1  O    0.000000
 Electronic spatial extent (au):  <R**2>=             17.6893
 Charge=              0.0000 electrons
 Dipole moment (field-independent basis, Debye):
    X=              0.2420    Y=             -1.8294    Z=              0.0000  Tot=              1.8454
 Quadrupole moment (field-independent basis, Debye-Ang):
   XX=             -5.0949   YY=             -5.7968   ZZ=             -7.3058
   XY=              0.7861   XZ=             -0.0000   YZ=             -0.0000
 Traceless Quadrupole moment (field-independent basis, Debye-Ang):
   XX=              0.9709   YY=              0.2690   ZZ=             -1.2400
   XY=              0.7861   XZ=             -0.0000   YZ=             -0.0000
 Octapole moment (field-independent basis, Debye-Ang**2):
  XXX=              0.5609  YYY=             -1.5607  ZZZ=             -0.0000  XYY=             -0.3317
  XXY=             -0.7668  XXZ=              0.0000  XZZ=              0.2269  YZZ=             -0.2991
  YYZ=              0.0000  XYZ=              0.0000
 Hexadecapole moment (field-independent basis, Debye-Ang**3):
 XXXX=             -5.2545 YYYY=             -6.8059 ZZZZ=             -6.8520 XXXY=             -0.0541
 XXXZ=              0.0000 YYYX=              0.1198 YYYZ=              0.0000 ZZZX=              0.0000
 ZZZY=              0.0000 XXYY=             -1.7765 XXZZ=             -2.1066 YYZZ=             -2.3880
 XXYZ=              0.0000 YYXZ=             -0.0000 ZZXY=             -0.1302
 N-N= 1.216093978399D+01 E-N=-2.047567122478D+02  KE= 7.760073323326D+01
 Symmetry A'   KE= 7.309098668501D+01
 Symmetry A"   KE= 4.509746548247D+00
 Variable Step   Value    
 -------- ---- -----------
     1       3    1.097797
 ---------------------------------------------------------------------------------------------------
                            Z-MATRIX (ANGSTROMS AND DEGREES)
   CD    Cent   Atom    N1       Length/X        N2       Alpha/Y        N3        Beta/Z          J
 ---------------------------------------------------------------------------------------------------
      1      1  O 
      2      2  H        1   0.580929(     1)
      3      3  H        1   0.965929(     2)      2  103.873(     3)
 ---------------------------------------------------------------------------------------------------
                         Z-Matrix orientation:                         
 ---------------------------------------------------------------------
 Center     Atomic      Atomic             Coordinates (Angstroms)
 Number     Number       Type             X           Y           Z
 ---------------------------------------------------------------------
      1          8           0        0.000000    0.000000    0.000000
      2          1           0        0.000000    0.000000    0.580929
      3          1           0        0.937752    0.000000   -0.231605
 ---------------------------------------------------------------------
                    Distance matrix (angstroms):
                    1          2          3
     1  O    0.000000
     2  H    0.580929   0.000000
     3  H    0.965929   1.240802   0.000000
 Stoichiometry    H2O
 Framework group  CS[SG(H2O)]
 Deg. of freedom     3
 Full point group                 CS      NOp   2
 Largest Abelian subgroup         CS      NOp   2
 Largest concise Abelian subgroup C1      NOp   1
                         Standard orientation:                         
 ---------------------------------------------------------------------
 Center     Atomic      Atomic             Coordinates (Angstroms)
 Number     Number       Type             X           Y           Z
 ---------------------------------------------------------------------
      1          8           0        0.000000    0.100070    0.000000
      2          1           0        0.544385   -0.102720    0.000000
      3          1           0       -0.544385   -0.697842   -0.000000
 ---------------------------------------------------------------------
 Rotational constants (GHZ):   1772.3656842    538.3127621    412.9034347
 Standard basis: Aug-CC-pVDZ (5D, 7F)
 There are    32 symmetry adapted cartesian basis functions of A'  symmetry.
 There are    11 symmetry adapted cartesian basis functions of A"  symmetry.
 There are    30 symmetry adapted basis functions of A'  symmetry.
 There are    11 symmetry adapted basis functions of A"  symmetry.
    41 basis functions,    65 primitive gaussians,    43 cartesian basis functions
     5 alpha electrons        5 beta electrons
       nuclear repulsion energy        12.0965475654 Hartrees.
 NAtoms=    3 NActive=    3 NUniq=    3 SFac= 1.00D+00 NAtFMM=   60 NAOKFM=F Big=F
 Integral buffers will be    131072 words long.
 Raffenetti 1 integral format.
 Two-electron integral symmetry is turned on.
 One-electron integrals computed using PRISM.
 NBasis=    41 RedAO= T EigKep=  1.65D-03  NBF=    30    11
 NBsUse=    41 1.00D-06 EigRej= -1.00D+00 NBFU=    30    11
 Initial guess from the checkpoint file:  "water_OH_scan.chk"
 B after Tr=     0.000000    0.000000   -0.000000
         Rot=    0.999997    0.000000    0.000000    0.002546 Ang=   0.29 deg.
 Initial guess orbital symmetries:
       Occupied  (A') (A') (A') (A') (A")
       Virtual   (A') (A') (A') (A') (A') (A') (A') (A') (A') (A')
                 (A') (A') (A') (A') (A') (A') (A') (A') (A') (A')
                 (A') (A') (A') (A') (A') (A') (A") (A") (A") (A")
                 (A") (A") (A") (A") (A") (A")
 ExpMin= 2.97D-02 ExpMax= 1.17D+04 ExpMxC= 4.01D+02 IAcc=3 IRadAn=         5 AccDes= 0.00D+00
 Harris functional with IExCor=  205 and IRadAn=       5 diagonalized for initial guess.
 HarFok:  IExCor=  205 AccDes= 0.00D+00 IRadAn=         5 IDoV= 1 UseB2=F ITyADJ=14
 ICtDFT=  3500011 ScaDFX=  1.000000  1.000000  1.000000  1.000000
 FoFCou: FMM=F IPFlag=           0 FMFlag=      100000 FMFlg1=           0
         NFxFlg=           0 DoJE=T BraDBF=F KetDBF=T FulRan=T
         wScrn=  0.000000 ICntrl=     500 IOpCl=  0 I1Cent=   200000004 NGrid=           0
         NMat0=    1 NMatS0=      1 NMatT0=    0 NMatD0=    1 NMtDS0=    0 NMtDT0=    0
 Petite list used in FoFCou.
 Keep R1 ints in memory in symmetry-blocked form, NReq=1235048.
 Requested convergence on RMS density matrix=1.00D-08 within 128 cycles.
 Requested convergence on MAX density matrix=1.00D-06.
 Requested convergence on             energy=1.00D-06.
 No special actions if energy rises.
 SCF Done:  E(RHF) =  -75.6451472287     A.U. after    8 cycles
            NFock=  8  Conv=0.41D-08     -V/T= 1.9761
 ExpMin= 2.97D-02 ExpMax= 1.17D+04 ExpMxC= 4.01D+02 IAcc=3 IRadAn=         5 AccDes= 0.00D+00
 HarFok:  IExCor=  205 AccDes= 0.00D+00 IRadAn=         5 IDoV=-2 UseB2=F ITyADJ=14
 ICtDFT= 12500011 ScaDFX=  1.000000  1.000000  1.000000  1.000000
 Range of M.O.s used for correlation:     2    41
 NBasis=    41 NAE=     5 NBE=     5 NFC=     1 NFV=     0
 NROrb=     40 NOA=     4 NOB=     4 NVA=    36 NVB=    36

 **** Warning!!: The largest alpha MO coefficient is  0.11221661D+02

 Fully in-core method, ICMem=     7167802.
 JobTyp=1 Pass  1 fully in-core, NPsUse=  8.
 Spin components of T(2) and E(2):
     alpha-alpha T2 =       0.6299521673D-02 E2=     -0.2584951335D-01
     alpha-beta  T2 =       0.3573381993D-01 E2=     -0.1508767246D+00
     beta-beta   T2 =       0.6299521673D-02 E2=     -0.2584951335D-01
 ANorm=    0.1023881274D+01
 E2 =    -0.2025757513D+00 EUMP2 =    -0.75847722979965D+02
          IDoAtm=111
          Differentiating once with respect to electric field.
                with respect to dipole field.
          Differentiating once with respect to nuclear coordinates.
 Keep R1 ints in memory in symmetry-blocked form, NReq=1217974.
          There are     1 degrees of freedom in the 1st order CPHF.  IDoFFX=0 NUNeed=     1.
 LinEq1:  Iter=  0 NonCon=     1 RMS=6.84D-03 Max=5.01D-02 NDo=     1
 AX will form     1 AO Fock derivatives at one time.
 LinEq1:  Iter=  1 NonCon=     1 RMS=1.53D-03 Max=6.07D-03 NDo=     1
 LinEq1:  Iter=  2 NonCon=     1 RMS=4.48D-04 Max=2.69D-03 NDo=     1
 LinEq1:  Iter=  3 NonCon=     1 RMS=5.52D-05 Max=2.26D-04 NDo=     1
 LinEq1:  Iter=  4 NonCon=     1 RMS=1.01D-05 Max=4.40D-05 NDo=     1
 LinEq1:  Iter=  5 NonCon=     1 RMS=1.69D-06 Max=6.51D-06 NDo=     1
 LinEq1:  Iter=  6 NonCon=     1 RMS=2.01D-07 Max=7.95D-07 NDo=     1
 LinEq1:  Iter=  7 NonCon=     1 RMS=2.04D-08 Max=9.49D-08 NDo=     1
 LinEq1:  Iter=  8 NonCon=     1 RMS=3.63D-09 Max=1.28D-08 NDo=     1
 LinEq1:  Iter=  9 NonCon=     1 RMS=5.36D-10 Max=2.39D-09 NDo=     1
 LinEq1:  Iter= 10 NonCon=     0 RMS=4.86D-11 Max=2.02D-10 NDo=     1
 Linear equations converged to 1.000D-10 1.000D-09 after    10 iterations.
 End of Minotr F.D. properties file   721 does not exist.
 End of Minotr F.D. properties file   722 does not exist.
 End of Minotr F.D. properties file   788 does not exist.

 **********************************************************************

            Population analysis using the MP2 density.

 **********************************************************************

 Orbital symmetries:
       Occupied  (A') (A') (A') (A') (A")
       Virtual   (A') (A') (A') (A") (A') (A') (A') (A') (A") (A')
                 (A") (A') (A') (A') (A') (A') (A") (A') (A") (A')
                 (A') (A") (A') (A") (A') (A') (A") (A') (A') (A')
                 (A") (A') (A") (A') (A') (A')
 The electronic state is 1-A'.
 Alpha  occ. eigenvalues --  -20.54450  -1.52426  -0.82531  -0.61451  -0.53206
 Alpha virt. eigenvalues --    0.03626   0.05905   0.16448   0.18368   0.21951
 Alpha virt. eigenvalues --    0.22782   0.30563   0.37189   0.38933   0.44911
 Alpha virt. eigenvalues --    0.47781   0.56765   0.63266   0.66318   0.86195
 Alpha virt. eigenvalues --    1.05316   1.07252   1.13491   1.15785   1.38594
 Alpha virt. eigenvalues --    1.45083   1.52194   1.90015   2.04236   2.11349
 Alpha virt. eigenvalues --    2.46291   2.51742   2.52609   2.66537   2.97596
 Alpha virt. eigenvalues --    3.66129   3.70606   3.82933   3.85588   4.16573
 Alpha virt. eigenvalues --    5.71883
          Condensed to atoms (all electrons):
               1          2          3
     1  O    7.241837   0.097270   0.417283
     2  H    0.097270   1.404208  -0.184362
     3  H    0.417283  -0.184362   0.693574
 Mulliken charges:
               1
     1  O    0.243610
     2  H   -0.317116
     3  H    0.073506
 Sum of Mulliken charges =  -0.00000
 Mulliken charges with hydrogens summed into heavy atoms:
               1
     1  O   -0.000000
 Electronic spatial extent (au):  <R**2>=             17.7217
 Charge=              0.0000 electrons
 Dipole moment (field-independent basis, Debye):
    X=              0.2378    Y=             -1.8294    Z=             -0.0000  Tot=              1.8448
 Quadrupole moment (field-independent basis, Debye-Ang):
   XX=             -5.0878   YY=             -5.8125   ZZ=             -7.3145
   XY=              0.7818   XZ=              0.0000   YZ=              0.0000
 Traceless Quadrupole moment (field-independent basis, Debye-Ang):
   XX=              0.9838   YY=              0.2591   ZZ=             -1.2429
   XY=              0.7818   XZ=              0.0000   YZ=              0.0000
 Octapole moment (field-independent basis, Debye-Ang**2):
  XXX=              0.5536  YYY=             -1.5525  ZZZ=              0.0000  XYY=             -0.3318
  XXY=             -0.7738  XXZ=             -0.0000  XZZ=              0.2246  YZZ=             -0.2996
  YYZ=             -0.0000  XYZ=             -0.0000
 Hexadecapole moment (field-independent basis, Debye-Ang**3):
 XXXX=             -5.2747 YYYY=             -6.8221 ZZZZ=             -6.8653 XXXY=             -0.0523
 XXXZ=             -0.0000 YYYX=              0.1156 YYYZ=             -0.0000 ZZZX=             -0.0000
 ZZZY=             -0.0000 XXYY=             -1.7811 XXZZ=             -2.1147 YYZZ=             -2.3912
 XXYZ=             -0.0000 YYXZ=              0.0000 ZZXY=             -0.1304
 N-N= 1.209654756544D+01 E-N=-2.046376751418D+02  KE= 7.756411728297D+01
 Symmetry A'   KE= 7.305825170165D+01
 Symmetry A"   KE= 4.505865581321D+00
 Variable Step   Value    
 -------- ---- -----------
     1       4    1.107245
 ---------------------------------------------------------------------------------------------------
                            Z-MATRIX (ANGSTROMS AND DEGREES)
   CD    Cent   Atom    N1       Length/X        N2       Alpha/Y        N3        Beta/Z          J
 ---------------------------------------------------------------------------------------------------
      1      1  O 
      2      2  H        1   0.585929(     1)
      3      3  H        1   0.965929(     2)      2  103.873(     3)
 ---------------------------------------------------------------------------------------------------
                         Z-Matrix orientation:                         
 ---------------------------------------------------------------------
 Center     Atomic      Atomic             Coordinates (Angstroms)
 Number     Number       Type             X           Y           Z
 ---------------------------------------------------------------------
      1          8           0        0.000000    0.000000    0.000000
      2          1           0        0.000000    0.000000    0.585929
      3          1           0        0.937752    0.000000   -0.231605
 ---------------------------------------------------------------------
                    Distance matrix (angstroms):
                    1          2          3
     1  O    0.000000
     2  H    0.585929   0.000000
     3  H    0.965929   1.244082   0.000000
 Stoichiometry    H2O
 Framework group  CS[SG(H2O)]
 Deg. of freedom     3
 Full point group                 CS      NOp   2
 Largest Abelian subgroup         CS      NOp   2
 Largest concise Abelian subgroup C1      NOp   1
                         Standard orientation:                         
 ---------------------------------------------------------------------
 Center     Atomic      Atomic             Coordinates (Angstroms)
 Number     Number       Type             X           Y           Z
 ---------------------------------------------------------------------
      1          8           0        0.000000    0.100246   -0.000000
      2          1           0        0.548108   -0.106854   -0.000000
      3          1           0       -0.548108   -0.695113    0.000000
 ---------------------------------------------------------------------
 Rotational constants (GHZ):   1744.2644130    537.6898201    410.9956304
 Standard basis: Aug-CC-pVDZ (5D, 7F)
 There are    32 symmetry adapted cartesian basis functions of A'  symmetry.
 There are    11 symmetry adapted cartesian basis functions of A"  symmetry.
 There are    30 symmetry adapted basis functions of A'  symmetry.
 There are    11 symmetry adapted basis functions of A"  symmetry.
    41 basis functions,    65 primitive gaussians,    43 cartesian basis functions
     5 alpha electrons        5 beta electrons
       nuclear repulsion energy        12.0332370835 Hartrees.
 NAtoms=    3 NActive=    3 NUniq=    3 SFac= 1.00D+00 NAtFMM=   60 NAOKFM=F Big=F
 Integral buffers will be    131072 words long.
 Raffenetti 1 integral format.
 Two-electron integral symmetry is turned on.
 One-electron integrals computed using PRISM.
 NBasis=    41 RedAO= T EigKep=  1.66D-03  NBF=    30    11
 NBsUse=    41 1.00D-06 EigRej= -1.00D+00 NBFU=    30    11
 Initial guess from the checkpoint file:  "water_OH_scan.chk"
 B after Tr=    -0.000000   -0.000000    0.000000
         Rot=    0.999997   -0.000000   -0.000000    0.002537 Ang=   0.29 deg.
 Initial guess orbital symmetries:
       Occupied  (A') (A') (A') (A') (A")
       Virtual   (A') (A') (A') (A') (A') (A') (A') (A') (A') (A')
                 (A') (A') (A') (A') (A') (A') (A') (A') (A') (A')
                 (A') (A') (A') (A') (A') (A') (A") (A") (A") (A")
                 (A") (A") (A") (A") (A") (A")
 ExpMin= 2.97D-02 ExpMax= 1.17D+04 ExpMxC= 4.01D+02 IAcc=3 IRadAn=         5 AccDes= 0.00D+00
 Harris functional with IExCor=  205 and IRadAn=       5 diagonalized for initial guess.
 HarFok:  IExCor=  205 AccDes= 0.00D+00 IRadAn=         5 IDoV= 1 UseB2=F ITyADJ=14
 ICtDFT=  3500011 ScaDFX=  1.000000  1.000000  1.000000  1.000000
 FoFCou: FMM=F IPFlag=           0 FMFlag=      100000 FMFlg1=           0
         NFxFlg=           0 DoJE=T BraDBF=F KetDBF=T FulRan=T
         wScrn=  0.000000 ICntrl=     500 IOpCl=  0 I1Cent=   200000004 NGrid=           0
         NMat0=    1 NMatS0=      1 NMatT0=    0 NMatD0=    1 NMtDS0=    0 NMtDT0=    0
 Petite list used in FoFCou.
 Keep R1 ints in memory in symmetry-blocked form, NReq=1235048.
 Requested convergence on RMS density matrix=1.00D-08 within 128 cycles.
 Requested convergence on MAX density matrix=1.00D-06.
 Requested convergence on             energy=1.00D-06.
 No special actions if energy rises.
 SCF Done:  E(RHF) =  -75.6622205615     A.U. after    8 cycles
            NFock=  8  Conv=0.41D-08     -V/T= 1.9767
 ExpMin= 2.97D-02 ExpMax= 1.17D+04 ExpMxC= 4.01D+02 IAcc=3 IRadAn=         5 AccDes= 0.00D+00
 HarFok:  IExCor=  205 AccDes= 0.00D+00 IRadAn=         5 IDoV=-2 UseB2=F ITyADJ=14
 ICtDFT= 12500011 ScaDFX=  1.000000  1.000000  1.000000  1.000000
 Range of M.O.s used for correlation:     2    41
 NBasis=    41 NAE=     5 NBE=     5 NFC=     1 NFV=     0
 NROrb=     40 NOA=     4 NOB=     4 NVA=    36 NVB=    36

 **** Warning!!: The largest alpha MO coefficient is  0.11206680D+02

 Fully in-core method, ICMem=     7167802.
 JobTyp=1 Pass  1 fully in-core, NPsUse=  8.
 Spin components of T(2) and E(2):
     alpha-alpha T2 =       0.6316958275D-02 E2=     -0.2588287316D-01
     alpha-beta  T2 =       0.3582167582D-01 E2=     -0.1510747417D+00
     beta-beta   T2 =       0.6316958275D-02 E2=     -0.2588287316D-01
 ANorm=    0.1023941206D+01
 E2 =    -0.2028404880D+00 EUMP2 =    -0.75865061049479D+02
          IDoAtm=111
          Differentiating once with respect to electric field.
                with respect to dipole field.
          Differentiating once with respect to nuclear coordinates.
 Keep R1 ints in memory in symmetry-blocked form, NReq=1217974.
          There are     1 degrees of freedom in the 1st order CPHF.  IDoFFX=0 NUNeed=     1.
 LinEq1:  Iter=  0 NonCon=     1 RMS=6.85D-03 Max=5.03D-02 NDo=     1
 AX will form     1 AO Fock derivatives at one time.
 LinEq1:  Iter=  1 NonCon=     1 RMS=1.53D-03 Max=6.09D-03 NDo=     1
 LinEq1:  Iter=  2 NonCon=     1 RMS=4.49D-04 Max=2.71D-03 NDo=     1
 LinEq1:  Iter=  3 NonCon=     1 RMS=5.51D-05 Max=2.25D-04 NDo=     1
 LinEq1:  Iter=  4 NonCon=     1 RMS=1.00D-05 Max=4.38D-05 NDo=     1
 LinEq1:  Iter=  5 NonCon=     1 RMS=1.69D-06 Max=6.44D-06 NDo=     1
 LinEq1:  Iter=  6 NonCon=     1 RMS=2.01D-07 Max=7.95D-07 NDo=     1
 LinEq1:  Iter=  7 NonCon=     1 RMS=2.03D-08 Max=9.41D-08 NDo=     1
 LinEq1:  Iter=  8 NonCon=     1 RMS=3.61D-09 Max=1.30D-08 NDo=     1
 LinEq1:  Iter=  9 NonCon=     1 RMS=5.38D-10 Max=2.38D-09 NDo=     1
 LinEq1:  Iter= 10 NonCon=     0 RMS=4.86D-11 Max=2.02D-10 NDo=     1
 Linear equations converged to 1.000D-10 1.000D-09 after    10 iterations.
 End of Minotr F.D. properties file   721 does not exist.
 End of Minotr F.D. properties file   722 does not exist.
 End of Minotr F.D. properties file   788 does not exist.

 **********************************************************************

            Population analysis using the MP2 density.

 **********************************************************************

 Orbital symmetries:
       Occupied  (A') (A') (A') (A') (A")
       Virtual   (A') (A') (A') (A") (A') (A') (A') (A') (A") (A')
                 (A") (A') (A') (A') (A') (A') (A") (A') (A") (A')
                 (A') (A") (A') (A") (A') (A') (A") (A') (A') (A')
                 (A") (A') (A") (A') (A') (A')
 The electronic state is 1-A'.
 Alpha  occ. eigenvalues --  -20.54441  -1.52111  -0.82398  -0.61417  -0.53166
 Alpha virt. eigenvalues --    0.03626   0.05903   0.16466   0.18391   0.21968
 Alpha virt. eigenvalues --    0.22782   0.30567   0.37157   0.38935   0.44827
 Alpha virt. eigenvalues --    0.47706   0.56733   0.63299   0.66319   0.86183
 Alpha virt. eigenvalues --    1.05294   1.07301   1.13392   1.15778   1.38552
 Alpha virt. eigenvalues --    1.45050   1.52191   1.89395   2.04231   2.11321
 Alpha virt. eigenvalues --    2.46416   2.50706   2.52311   2.66229   2.97312
 Alpha virt. eigenvalues --    3.66144   3.69708   3.82635   3.85132   4.16254
 Alpha virt. eigenvalues --    5.66363
          Condensed to atoms (all electrons):
               1          2          3
     1  O    7.236360   0.113568   0.413943
     2  H    0.113568   1.379050  -0.181394
     3  H    0.413943  -0.181394   0.692355
 Mulliken charges:
               1
     1  O    0.236129
     2  H   -0.311225
     3  H    0.075096
 Sum of Mulliken charges =  -0.00000
 Mulliken charges with hydrogens summed into heavy atoms:
               1
     1  O   -0.000000
 Electronic spatial extent (au):  <R**2>=             17.7541
 Charge=             -0.0000 electrons
 Dipole moment (field-independent basis, Debye):
    X=              0.2337    Y=             -1.8294    Z=              0.0000  Tot=              1.8442
 Quadrupole moment (field-independent basis, Debye-Ang):
   XX=             -5.0807   YY=             -5.8281   ZZ=             -7.3232
   XY=              0.7773   XZ=             -0.0000   YZ=             -0.0000
 Traceless Quadrupole moment (field-independent basis, Debye-Ang):
   XX=              0.9966   YY=              0.2492   ZZ=             -1.2458
   XY=              0.7773   XZ=             -0.0000   YZ=             -0.0000
 Octapole moment (field-independent basis, Debye-Ang**2):
  XXX=              0.5463  YYY=             -1.5442  ZZZ=             -0.0000  XYY=             -0.3319
  XXY=             -0.7807  XXZ=              0.0000  XZZ=              0.2223  YZZ=             -0.3001
  YYZ=              0.0000  XYZ=              0.0000
 Hexadecapole moment (field-independent basis, Debye-Ang**3):
 XXXX=             -5.2948 YYYY=             -6.8384 ZZZZ=             -6.8788 XXXY=             -0.0505
 XXXZ=              0.0000 YYYX=              0.1114 YYYZ=              0.0000 ZZZX=              0.0000
 ZZZY=              0.0000 XXYY=             -1.7858 XXZZ=             -2.1228 YYZZ=             -2.3944
 XXYZ=              0.0000 YYXZ=             -0.0000 ZZXY=             -0.1305
 N-N= 1.203323708349D+01 E-N=-2.045199584630D+02  KE= 7.752808880151D+01
 Symmetry A'   KE= 7.302600139949D+01
 Symmetry A"   KE= 4.502087402021D+00
 Variable Step   Value    
 -------- ---- -----------
     1       5    1.116694
 ---------------------------------------------------------------------------------------------------
                            Z-MATRIX (ANGSTROMS AND DEGREES)
   CD    Cent   Atom    N1       Length/X        N2       Alpha/Y        N3        Beta/Z          J
 ---------------------------------------------------------------------------------------------------
      1      1  O 
      2      2  H        1   0.590929(     1)
      3      3  H        1   0.965929(     2)      2  103.873(     3)
 ---------------------------------------------------------------------------------------------------
                         Z-Matrix orientation:                         
 ---------------------------------------------------------------------
 Center     Atomic      Atomic             Coordinates (Angstroms)
 Number     Number       Type             X           Y           Z
 ---------------------------------------------------------------------
      1          8           0        0.000000    0.000000    0.000000
      2          1           0        0.000000    0.000000    0.590929
      3          1           0        0.937752    0.000000   -0.231605
 ---------------------------------------------------------------------
                    Distance matrix (angstroms):
                    1          2          3
     1  O    0.000000
     2  H    0.590929   0.000000
     3  H    0.965929   1.247373   0.000000
 Stoichiometry    H2O
 Framework group  CS[SG(H2O)]
 Deg. of freedom     3
 Full point group                 CS      NOp   2
 Largest Abelian subgroup         CS      NOp   2
 Largest concise Abelian subgroup C1      NOp   1
                         Standard orientation:                         
 ---------------------------------------------------------------------
 Center     Atomic      Atomic             Coordinates (Angstroms)
 Number     Number       Type             X           Y           Z
 ---------------------------------------------------------------------
      1          8           0        0.000000    0.100424   -0.000000
      2          1           0        0.551807   -0.111015   -0.000000
      3          1           0       -0.551807   -0.692374    0.000000
 ---------------------------------------------------------------------
 Rotational constants (GHZ):   1716.8990230    537.0549943    409.0896211
 Standard basis: Aug-CC-pVDZ (5D, 7F)
 There are    32 symmetry adapted cartesian basis functions of A'  symmetry.
 There are    11 symmetry adapted cartesian basis functions of A"  symmetry.
 There are    30 symmetry adapted basis functions of A'  symmetry.
 There are    11 symmetry adapted basis functions of A"  symmetry.
    41 basis functions,    65 primitive gaussians,    43 cartesian basis functions
     5 alpha electrons        5 beta electrons
       nuclear repulsion energy        11.9709809763 Hartrees.
 NAtoms=    3 NActive=    3 NUniq=    3 SFac= 1.00D+00 NAtFMM=   60 NAOKFM=F Big=F
 Integral buffers will be    131072 words long.
 Raffenetti 1 integral format.
 Two-electron integral symmetry is turned on.
 One-electron integrals computed using PRISM.
 NBasis=    41 RedAO= T EigKep=  1.68D-03  NBF=    30    11
 NBsUse=    41 1.00D-06 EigRej= -1.00D+00 NBFU=    30    11
 Initial guess from the checkpoint file:  "water_OH_scan.chk"
 B after Tr=    -0.000000    0.000000   -0.000000
         Rot=    0.999997    0.000000    0.000000    0.002528 Ang=   0.29 deg.
 Initial guess orbital symmetries:
       Occupied  (A') (A') (A') (A') (A")
       Virtual   (A') (A') (A') (A') (A') (A') (A') (A') (A') (A')
                 (A') (A') (A') (A') (A') (A') (A') (A') (A') (A')
                 (A') (A') (A') (A') (A') (A') (A") (A") (A") (A")
                 (A") (A") (A") (A") (A") (A")
 ExpMin= 2.97D-02 ExpMax= 1.17D+04 ExpMxC= 4.01D+02 IAcc=3 IRadAn=         5 AccDes= 0.00D+00
 Harris functional with IExCor=  205 and IRadAn=       5 diagonalized for initial guess.
 HarFok:  IExCor=  205 AccDes= 0.00D+00 IRadAn=         5 IDoV= 1 UseB2=F ITyADJ=14
 ICtDFT=  3500011 ScaDFX=  1.000000  1.000000  1.000000  1.000000
 FoFCou: FMM=F IPFlag=           0 FMFlag=      100000 FMFlg1=           0
         NFxFlg=           0 DoJE=T BraDBF=F KetDBF=T FulRan=T
         wScrn=  0.000000 ICntrl=     500 IOpCl=  0 I1Cent=   200000004 NGrid=           0
         NMat0=    1 NMatS0=      1 NMatT0=    0 NMatD0=    1 NMtDS0=    0 NMtDT0=    0
 Petite list used in FoFCou.
 Keep R1 ints in memory in symmetry-blocked form, NReq=1235048.
 Requested convergence on RMS density matrix=1.00D-08 within 128 cycles.
 Requested convergence on MAX density matrix=1.00D-06.
 Requested convergence on             energy=1.00D-06.
 No special actions if energy rises.
 SCF Done:  E(RHF) =  -75.6786630663     A.U. after    8 cycles
            NFock=  8  Conv=0.41D-08     -V/T= 1.9774
 ExpMin= 2.97D-02 ExpMax= 1.17D+04 ExpMxC= 4.01D+02 IAcc=3 IRadAn=         5 AccDes= 0.00D+00
 HarFok:  IExCor=  205 AccDes= 0.00D+00 IRadAn=         5 IDoV=-2 UseB2=F ITyADJ=14
 ICtDFT= 12500011 ScaDFX=  1.000000  1.000000  1.000000  1.000000
 Range of M.O.s used for correlation:     2    41
 NBasis=    41 NAE=     5 NBE=     5 NFC=     1 NFV=     0
 NROrb=     40 NOA=     4 NOB=     4 NVA=    36 NVB=    36

 **** Warning!!: The largest alpha MO coefficient is  0.11189820D+02

 Fully in-core method, ICMem=     7167802.
 JobTyp=1 Pass  1 fully in-core, NPsUse=  8.
 Spin components of T(2) and E(2):
     alpha-alpha T2 =       0.6334453359D-02 E2=     -0.2591602772D-01
     alpha-beta  T2 =       0.3590993865D-01 E2=     -0.1512715269D+00
     beta-beta   T2 =       0.6334453359D-02 E2=     -0.2591602772D-01
 ANorm=    0.1024001389D+01
 E2 =    -0.2031035823D+00 EUMP2 =    -0.75881766648663D+02
          IDoAtm=111
          Differentiating once with respect to electric field.
                with respect to dipole field.
          Differentiating once with respect to nuclear coordinates.
 Keep R1 ints in memory in symmetry-blocked form, NReq=1217974.
          There are     1 degrees of freedom in the 1st order CPHF.  IDoFFX=0 NUNeed=     1.
 LinEq1:  Iter=  0 NonCon=     1 RMS=6.86D-03 Max=5.04D-02 NDo=     1
 AX will form     1 AO Fock derivatives at one time.
 LinEq1:  Iter=  1 NonCon=     1 RMS=1.52D-03 Max=6.11D-03 NDo=     1
 LinEq1:  Iter=  2 NonCon=     1 RMS=4.50D-04 Max=2.73D-03 NDo=     1
 LinEq1:  Iter=  3 NonCon=     1 RMS=5.50D-05 Max=2.24D-04 NDo=     1
 LinEq1:  Iter=  4 NonCon=     1 RMS=9.98D-06 Max=4.37D-05 NDo=     1
 LinEq1:  Iter=  5 NonCon=     1 RMS=1.69D-06 Max=6.36D-06 NDo=     1
 LinEq1:  Iter=  6 NonCon=     1 RMS=2.01D-07 Max=7.94D-07 NDo=     1
 LinEq1:  Iter=  7 NonCon=     1 RMS=2.03D-08 Max=9.33D-08 NDo=     1
 LinEq1:  Iter=  8 NonCon=     1 RMS=3.59D-09 Max=1.32D-08 NDo=     1
 LinEq1:  Iter=  9 NonCon=     1 RMS=5.39D-10 Max=2.37D-09 NDo=     1
 LinEq1:  Iter= 10 NonCon=     0 RMS=4.87D-11 Max=2.01D-10 NDo=     1
 Linear equations converged to 1.000D-10 1.000D-09 after    10 iterations.
 End of Minotr F.D. properties file   721 does not exist.
 End of Minotr F.D. properties file   722 does not exist.
 End of Minotr F.D. properties file   788 does not exist.

 **********************************************************************

            Population analysis using the MP2 density.

 **********************************************************************

 Orbital symmetries:
       Occupied  (A') (A') (A') (A') (A")
       Virtual   (A') (A') (A') (A") (A') (A') (A') (A') (A") (A')
                 (A") (A') (A') (A') (A') (A') (A") (A') (A") (A')
                 (A') (A") (A') (A") (A') (A') (A") (A') (A') (A')
                 (A") (A') (A") (A') (A') (A')
 The electronic state is 1-A'.
 Alpha  occ. eigenvalues --  -20.54437  -1.51797  -0.82265  -0.61383  -0.53126
 Alpha virt. eigenvalues --    0.03627   0.05901   0.16484   0.18415   0.21984
 Alpha virt. eigenvalues --    0.22783   0.30571   0.37125   0.38937   0.44743
 Alpha virt. eigenvalues --    0.47631   0.56701   0.63332   0.66320   0.86170
 Alpha virt. eigenvalues --    1.05266   1.07350   1.13293   1.15771   1.38508
 Alpha virt. eigenvalues --    1.45017   1.52186   1.88772   2.04226   2.11290
 Alpha virt. eigenvalues --    2.46538   2.49688   2.52012   2.65949   2.97039
 Alpha virt. eigenvalues --    3.66160   3.68778   3.82343   3.84687   4.15944
 Alpha virt. eigenvalues --    5.61063
          Condensed to atoms (all electrons):
               1          2          3
     1  O    7.231584   0.129119   0.410667
     2  H    0.129119   1.354629  -0.178453
     3  H    0.410667  -0.178453   0.691122
 Mulliken charges:
               1
     1  O    0.228631
     2  H   -0.305295
     3  H    0.076664
 Sum of Mulliken charges =   0.00000
 Mulliken charges with hydrogens summed into heavy atoms:
               1
     1  O    0.000000
 Electronic spatial extent (au):  <R**2>=             17.7865
 Charge=              0.0000 electrons
 Dipole moment (field-independent basis, Debye):
    X=              0.2295    Y=             -1.8294    Z=              0.0000  Tot=              1.8437
 Quadrupole moment (field-independent basis, Debye-Ang):
   XX=             -5.0736   YY=             -5.8437   ZZ=             -7.3319
   XY=              0.7726   XZ=             -0.0000   YZ=             -0.0000
 Traceless Quadrupole moment (field-independent basis, Debye-Ang):
   XX=              1.0095   YY=              0.2394   ZZ=             -1.2488
   XY=              0.7726   XZ=             -0.0000   YZ=             -0.0000
 Octapole moment (field-independent basis, Debye-Ang**2):
  XXX=              0.5389  YYY=             -1.5360  ZZZ=              0.0000  XYY=             -0.3319
  XXY=             -0.7877  XXZ=              0.0000  XZZ=              0.2199  YZZ=             -0.3006
  YYZ=              0.0000  XYZ=              0.0000
 Hexadecapole moment (field-independent basis, Debye-Ang**3):
 XXXX=             -5.3150 YYYY=             -6.8547 ZZZZ=             -6.8923 XXXY=             -0.0486
 XXXZ=              0.0000 YYYX=              0.1073 YYYZ=              0.0000 ZZZX=              0.0000
 ZZZY=              0.0000 XXYY=             -1.7906 XXZZ=             -2.1310 YYZZ=             -2.3976
 XXYZ=              0.0000 YYXZ=             -0.0000 ZZXY=             -0.1306
 N-N= 1.197098097628D+01 E-N=-2.044035471626D+02  KE= 7.749263857624D+01
 Symmetry A'   KE= 7.299422933141D+01
 Symmetry A"   KE= 4.498409244833D+00
 Variable Step   Value    
 -------- ---- -----------
     1       6    1.126142
 ---------------------------------------------------------------------------------------------------
                            Z-MATRIX (ANGSTROMS AND DEGREES)
   CD    Cent   Atom    N1       Length/X        N2       Alpha/Y        N3        Beta/Z          J
 ---------------------------------------------------------------------------------------------------
      1      1  O 
      2      2  H        1   0.595929(     1)
      3      3  H        1   0.965929(     2)      2  103.873(     3)
 ---------------------------------------------------------------------------------------------------
                         Z-Matrix orientation:                         
 ---------------------------------------------------------------------
 Center     Atomic      Atomic             Coordinates (Angstroms)
 Number     Number       Type             X           Y           Z
 ---------------------------------------------------------------------
      1          8           0        0.000000    0.000000    0.000000
      2          1           0        0.000000    0.000000    0.595929
      3          1           0        0.937752    0.000000   -0.231605
 ---------------------------------------------------------------------
                    Distance matrix (angstroms):
                    1          2          3
     1  O    0.000000
     2  H    0.595929   0.000000
     3  H    0.965929   1.250676   0.000000
 Stoichiometry    H2O
 Framework group  CS[SG(H2O)]
 Deg. of freedom     3
 Full point group                 CS      NOp   2
 Largest Abelian subgroup         CS      NOp   2
 Largest concise Abelian subgroup C1      NOp   1
                         Standard orientation:                         
 ---------------------------------------------------------------------
 Center     Atomic      Atomic             Coordinates (Angstroms)
 Number     Number       Type             X           Y           Z
 ---------------------------------------------------------------------
      1          8           0        0.000000    0.100604   -0.000000
      2          1           0        0.555480   -0.115205   -0.000000
      3          1           0       -0.555480   -0.689625    0.000000
 ---------------------------------------------------------------------
 Rotational constants (GHZ):   1690.2456210    536.4080159    407.1856012
 Standard basis: Aug-CC-pVDZ (5D, 7F)
 There are    32 symmetry adapted cartesian basis functions of A'  symmetry.
 There are    11 symmetry adapted cartesian basis functions of A"  symmetry.
 There are    30 symmetry adapted basis functions of A'  symmetry.
 There are    11 symmetry adapted basis functions of A"  symmetry.
    41 basis functions,    65 primitive gaussians,    43 cartesian basis functions
     5 alpha electrons        5 beta electrons
       nuclear repulsion energy        11.9097528007 Hartrees.
 NAtoms=    3 NActive=    3 NUniq=    3 SFac= 1.00D+00 NAtFMM=   60 NAOKFM=F Big=F
 Integral buffers will be    131072 words long.
 Raffenetti 1 integral format.
 Two-electron integral symmetry is turned on.
 One-electron integrals computed using PRISM.
 NBasis=    41 RedAO= T EigKep=  1.70D-03  NBF=    30    11
 NBsUse=    41 1.00D-06 EigRej= -1.00D+00 NBFU=    30    11
 Initial guess from the checkpoint file:  "water_OH_scan.chk"
 B after Tr=    -0.000000   -0.000000    0.000000
         Rot=    0.999997    0.000000    0.000000    0.002518 Ang=   0.29 deg.
 Initial guess orbital symmetries:
       Occupied  (A') (A') (A') (A') (A")
       Virtual   (A') (A') (A') (A') (A') (A') (A') (A') (A') (A')
                 (A') (A') (A') (A') (A') (A') (A') (A') (A') (A')
                 (A') (A') (A') (A') (A') (A') (A") (A") (A") (A")
                 (A") (A") (A") (A") (A") (A")
 ExpMin= 2.97D-02 ExpMax= 1.17D+04 ExpMxC= 4.01D+02 IAcc=3 IRadAn=         5 AccDes= 0.00D+00
 Harris functional with IExCor=  205 and IRadAn=       5 diagonalized for initial guess.
 HarFok:  IExCor=  205 AccDes= 0.00D+00 IRadAn=         5 IDoV= 1 UseB2=F ITyADJ=14
 ICtDFT=  3500011 ScaDFX=  1.000000  1.000000  1.000000  1.000000
 FoFCou: FMM=F IPFlag=           0 FMFlag=      100000 FMFlg1=           0
         NFxFlg=           0 DoJE=T BraDBF=F KetDBF=T FulRan=T
         wScrn=  0.000000 ICntrl=     500 IOpCl=  0 I1Cent=   200000004 NGrid=           0
         NMat0=    1 NMatS0=      1 NMatT0=    0 NMatD0=    1 NMtDS0=    0 NMtDT0=    0
 Petite list used in FoFCou.
 Keep R1 ints in memory in symmetry-blocked form, NReq=1235048.
 Requested convergence on RMS density matrix=1.00D-08 within 128 cycles.
 Requested convergence on MAX density matrix=1.00D-06.
 Requested convergence on             energy=1.00D-06.
 No special actions if energy rises.
 SCF Done:  E(RHF) =  -75.6944969228     A.U. after    8 cycles
            NFock=  8  Conv=0.41D-08     -V/T= 1.9781
 ExpMin= 2.97D-02 ExpMax= 1.17D+04 ExpMxC= 4.01D+02 IAcc=3 IRadAn=         5 AccDes= 0.00D+00
 HarFok:  IExCor=  205 AccDes= 0.00D+00 IRadAn=         5 IDoV=-2 UseB2=F ITyADJ=14
 ICtDFT= 12500011 ScaDFX=  1.000000  1.000000  1.000000  1.000000
 Range of M.O.s used for correlation:     2    41
 NBasis=    41 NAE=     5 NBE=     5 NFC=     1 NFV=     0
 NROrb=     40 NOA=     4 NOB=     4 NVA=    36 NVB=    36

 **** Warning!!: The largest alpha MO coefficient is  0.11171137D+02

 Fully in-core method, ICMem=     7167802.
 JobTyp=1 Pass  1 fully in-core, NPsUse=  8.
 Spin components of T(2) and E(2):
     alpha-alpha T2 =       0.6352005251D-02 E2=     -0.2594897260D-01
     alpha-beta  T2 =       0.3599860579D-01 E2=     -0.1514670607D+00
     beta-beta   T2 =       0.6352005251D-02 E2=     -0.2594897260D-01
 ANorm=    0.1024061822D+01
 E2 =    -0.2033650059D+00 EUMP2 =    -0.75897861928680D+02
          IDoAtm=111
          Differentiating once with respect to electric field.
                with respect to dipole field.
          Differentiating once with respect to nuclear coordinates.
 Keep R1 ints in memory in symmetry-blocked form, NReq=1217974.
          There are     1 degrees of freedom in the 1st order CPHF.  IDoFFX=0 NUNeed=     1.
 LinEq1:  Iter=  0 NonCon=     1 RMS=6.87D-03 Max=5.05D-02 NDo=     1
 AX will form     1 AO Fock derivatives at one time.
 LinEq1:  Iter=  1 NonCon=     1 RMS=1.52D-03 Max=6.14D-03 NDo=     1
 LinEq1:  Iter=  2 NonCon=     1 RMS=4.52D-04 Max=2.75D-03 NDo=     1
 LinEq1:  Iter=  3 NonCon=     1 RMS=5.49D-05 Max=2.23D-04 NDo=     1
 LinEq1:  Iter=  4 NonCon=     1 RMS=9.94D-06 Max=4.36D-05 NDo=     1
 LinEq1:  Iter=  5 NonCon=     1 RMS=1.69D-06 Max=6.28D-06 NDo=     1
 LinEq1:  Iter=  6 NonCon=     1 RMS=2.01D-07 Max=7.94D-07 NDo=     1
 LinEq1:  Iter=  7 NonCon=     1 RMS=2.02D-08 Max=9.25D-08 NDo=     1
 LinEq1:  Iter=  8 NonCon=     1 RMS=3.57D-09 Max=1.33D-08 NDo=     1
 LinEq1:  Iter=  9 NonCon=     1 RMS=5.40D-10 Max=2.36D-09 NDo=     1
 LinEq1:  Iter= 10 NonCon=     0 RMS=4.88D-11 Max=2.01D-10 NDo=     1
 Linear equations converged to 1.000D-10 1.000D-09 after    10 iterations.
 End of Minotr F.D. properties file   721 does not exist.
 End of Minotr F.D. properties file   722 does not exist.
 End of Minotr F.D. properties file   788 does not exist.

 **********************************************************************

            Population analysis using the MP2 density.

 **********************************************************************

 Orbital symmetries:
       Occupied  (A') (A') (A') (A') (A")
       Virtual   (A') (A') (A') (A") (A') (A') (A') (A') (A") (A')
                 (A") (A') (A') (A') (A') (A') (A") (A') (A") (A')
                 (A') (A") (A') (A") (A') (A') (A") (A') (A') (A')
                 (A") (A') (A") (A') (A') (A')
 The electronic state is 1-A'.
 Alpha  occ. eigenvalues --  -20.54437  -1.51484  -0.82130  -0.61348  -0.53087
 Alpha virt. eigenvalues --    0.03628   0.05899   0.16502   0.18438   0.22000
 Alpha virt. eigenvalues --    0.22783   0.30574   0.37092   0.38939   0.44659
 Alpha virt. eigenvalues --    0.47557   0.56668   0.63365   0.66322   0.86157
 Alpha virt. eigenvalues --    1.05231   1.07399   1.13194   1.15764   1.38461
 Alpha virt. eigenvalues --    1.44986   1.52179   1.88147   2.04221   2.11255
 Alpha virt. eigenvalues --    2.46656   2.48688   2.51713   2.65696   2.96777
 Alpha virt. eigenvalues --    3.66177   3.67814   3.82056   3.84254   4.15642
 Alpha virt. eigenvalues --    5.55975
          Condensed to atoms (all electrons):
               1          2          3
     1  O    7.227479   0.143942   0.407458
     2  H    0.143942   1.330934  -0.175544
     3  H    0.407458  -0.175544   0.689876
 Mulliken charges:
               1
     1  O    0.221122
     2  H   -0.299332
     3  H    0.078210
 Sum of Mulliken charges =   0.00000
 Mulliken charges with hydrogens summed into heavy atoms:
               1
     1  O    0.000000
 Electronic spatial extent (au):  <R**2>=             17.8189
 Charge=              0.0000 electrons
 Dipole moment (field-independent basis, Debye):
    X=              0.2254    Y=             -1.8294    Z=              0.0000  Tot=              1.8432
 Quadrupole moment (field-independent basis, Debye-Ang):
   XX=             -5.0663   YY=             -5.8591   ZZ=             -7.3406
   XY=              0.7677   XZ=             -0.0000   YZ=             -0.0000
 Traceless Quadrupole moment (field-independent basis, Debye-Ang):
   XX=              1.0223   YY=              0.2296   ZZ=             -1.2519
   XY=              0.7677   XZ=             -0.0000   YZ=             -0.0000
 Octapole moment (field-independent basis, Debye-Ang**2):
  XXX=              0.5316  YYY=             -1.5277  ZZZ=              0.0000  XYY=             -0.3317
  XXY=             -0.7946  XXZ=              0.0000  XZZ=              0.2175  YZZ=             -0.3010
  YYZ=              0.0000  XYZ=              0.0000
 Hexadecapole moment (field-independent basis, Debye-Ang**3):
 XXXX=             -5.3351 YYYY=             -6.8710 ZZZZ=             -6.9058 XXXY=             -0.0468
 XXXZ=              0.0000 YYYX=              0.1032 YYYZ=              0.0000 ZZZX=              0.0000
 ZZZY=              0.0000 XXYY=             -1.7955 XXZZ=             -2.1392 YYZZ=             -2.4008
 XXYZ=              0.0000 YYXZ=             -0.0000 ZZXY=             -0.1307
 N-N= 1.190975280068D+01 E-N=-2.042884265175D+02  KE= 7.745775768386D+01
 Symmetry A'   KE= 7.296292927139D+01
 Symmetry A"   KE= 4.494828412475D+00
 Variable Step   Value    
 -------- ---- -----------
     1       7    1.135591
 ---------------------------------------------------------------------------------------------------
                            Z-MATRIX (ANGSTROMS AND DEGREES)
   CD    Cent   Atom    N1       Length/X        N2       Alpha/Y        N3        Beta/Z          J
 ---------------------------------------------------------------------------------------------------
      1      1  O 
      2      2  H        1   0.600929(     1)
      3      3  H        1   0.965929(     2)      2  103.873(     3)
 ---------------------------------------------------------------------------------------------------
                         Z-Matrix orientation:                         
 ---------------------------------------------------------------------
 Center     Atomic      Atomic             Coordinates (Angstroms)
 Number     Number       Type             X           Y           Z
 ---------------------------------------------------------------------
      1          8           0        0.000000    0.000000    0.000000
      2          1           0        0.000000    0.000000    0.600929
      3          1           0        0.937752    0.000000   -0.231605
 ---------------------------------------------------------------------
                    Distance matrix (angstroms):
                    1          2          3
     1  O    0.000000
[...]
    6     0.5909    -75.67866    -75.88177
    7     0.5959    -75.69450    -75.89786
    8     0.6009    -75.70974    -75.91337
    9     0.6059    -75.72442    -75.92831
   10     0.6109    -75.73856    -75.94270
   11     0.6159    -75.75216    -75.95655
   12     0.6209    -75.76526    -75.96990
   13     0.6259    -75.77786    -75.98276
   14     0.6309    -75.78999    -75.99514
   15     0.6359    -75.80166    -76.00705
   16     0.6409    -75.81289    -76.01853
   17     0.6459    -75.82369    -76.02957
   18     0.6509    -75.83407    -76.04020
   19     0.6559    -75.84406    -76.05043
   20     0.6609    -75.85366    -76.06027
   21     0.6659    -75.86289    -76.06974
   22     0.6709    -75.87177    -76.07885
   23     0.6759    -75.88029    -76.08761
   24     0.6809    -75.88848    -76.09604
   25     0.6859    -75.89634    -76.10413
   26     0.6909    -75.90389    -76.11192
   27     0.6959    -75.91114    -76.11940
   28     0.7009    -75.91810    -76.12658
   29     0.7059    -75.92477    -76.13348
   30     0.7109    -75.93117    -76.14011
   31     0.7159    -75.93731    -76.14647
   32     0.7209    -75.94319    -76.15258
   33     0.7259    -75.94882    -76.15844
   34     0.7309    -75.95421    -76.16405
   35     0.7359    -75.95937    -76.16944
   36     0.7409    -75.96431    -76.17460
   37     0.7459    -75.96904    -76.17955
   38     0.7509    -75.97355    -76.18428
   39     0.7559    -75.97786    -76.18882
   40     0.7609    -75.98198    -76.19315
   41     0.7659    -75.98591    -76.19730
   42     0.7709    -75.98965    -76.20127
   43     0.7759    -75.99322    -76.20505
   44     0.7809    -75.99662    -76.20867
   45     0.7859    -75.99985    -76.21212
   46     0.7909    -76.00292    -76.21541
   47     0.7959    -76.00583    -76.21854
   48     0.8009    -76.00860    -76.22153
   49     0.8059    -76.01122    -76.22437
   50     0.8109    -76.01370    -76.22706
   51     0.8159    -76.01605    -76.22963
   52     0.8209    -76.01826    -76.23206
   53     0.8259    -76.02035    -76.23436
   54     0.8309    -76.02231    -76.23654
   55     0.8359    -76.02415    -76.23860
   56     0.8409    -76.02588    -76.24055
   57     0.8459    -76.02750    -76.24238
   58     0.8509    -76.02901    -76.24411
   59     0.8559    -76.03041    -76.24573
   60     0.8609    -76.03172    -76.24726
   61     0.8659    -76.03292    -76.24868
   62     0.8709    -76.03404    -76.25001
   63     0.8759    -76.03506    -76.25125
   64     0.8809    -76.03599    -76.25240
   65     0.8859    -76.03683    -76.25346
   66     0.8909    -76.03760    -76.25444
   67     0.8959    -76.03828    -76.25535
   68     0.9009    -76.03888    -76.25617
   69     0.9059    -76.03942    -76.25692
   70     0.9109    -76.03987    -76.25760
   71     0.9159    -76.04026    -76.25821
   72     0.9209    -76.04058    -76.25875
   73     0.9259    -76.04084    -76.25922
   74     0.9309    -76.04103    -76.25963
   75     0.9359    -76.04116    -76.25998
   76     0.9409    -76.04123    -76.26027
   77     0.9459    -76.04124    -76.26051
   78     0.9509    -76.04120    -76.26069
   79     0.9559    -76.04110    -76.26081
   80     0.9609    -76.04096    -76.26089
   81     0.9659    -76.04076    -76.26091
   82     0.9709    -76.04052    -76.26089
   83     0.9759    -76.04023    -76.26082
   84     0.9809    -76.03989    -76.26070
   85     0.9859    -76.03951    -76.26054
   86     0.9909    -76.03909    -76.26034
   87     0.9959    -76.03863    -76.26010
   88     1.0009    -76.03812    -76.25982
   89     1.0059    -76.03759    -76.25951
   90     1.0109    -76.03701    -76.25915
   91     1.0159    -76.03640    -76.25876
   92     1.0209    -76.03576    -76.25834
   93     1.0259    -76.03508    -76.25789
   94     1.0309    -76.03437    -76.25740
   95     1.0359    -76.03363    -76.25689
   96     1.0409    -76.03287    -76.25634
   97     1.0459    -76.03207    -76.25577
   98     1.0509    -76.03125    -76.25517
   99     1.0559    -76.03040    -76.25454
  100     1.0609    -76.02953    -76.25389
  101     1.0659    -76.02863    -76.25321
  102     1.0709    -76.02771    -76.25252
  103     1.0759    -76.02677    -76.25179
  104     1.0809    -76.02580    -76.25105
  105     1.0859    -76.02482    -76.25029
  106     1.0909    -76.02381    -76.24951
  107     1.0959    -76.02279    -76.24870
  108     1.1009    -76.02175    -76.24788
  109     1.1059    -76.02069    -76.24704
  110     1.1109    -76.01961    -76.24619
  111     1.1159    -76.01852    -76.24532
  112     1.1209    -76.01741    -76.24443
  113     1.1259    -76.01629    -76.24353
  114     1.1309    -76.01516    -76.24261
  115     1.1359    -76.01401    -76.24168
  116     1.1409    -76.01284    -76.24074
  117     1.1459    -76.01167    -76.23979
  118     1.1509    -76.01048    -76.23882
  119     1.1559    -76.00928    -76.23784
  120     1.1609    -76.00808    -76.23685
  121     1.1659    -76.00686    -76.23585
  122     1.1709    -76.00563    -76.23484
  123     1.1759    -76.00439    -76.23382
  124     1.1809    -76.00314    -76.23280
  125     1.1859    -76.00189    -76.23176
  126     1.1909    -76.00063    -76.23071
  127     1.1959    -75.99936    -76.22966
  128     1.2009    -75.99808    -76.22860
  129     1.2059    -75.99680    -76.22754
  130     1.2109    -75.99550    -76.22646
  131     1.2159    -75.99421    -76.22538
  132     1.2209    -75.99291    -76.22430
  133     1.2259    -75.99160    -76.22321
  134     1.2309    -75.99029    -76.22211
  135     1.2359    -75.98897    -76.22101
  136     1.2409    -75.98765    -76.21991
  137     1.2459    -75.98633    -76.21880
  138     1.2509    -75.98500    -76.21769
  139     1.2559    -75.98366    -76.21657
  140     1.2609    -75.98233    -76.21545
  141     1.2659    -75.98099    -76.21433
  142     1.2709    -75.97965    -76.21321
  143     1.2759    -75.97831    -76.21208
  144     1.2809    -75.97696    -76.21095
  145     1.2859    -75.97562    -76.20982
  146     1.2909    -75.97427    -76.20868
  147     1.2959    -75.97292    -76.20755
  148     1.3009    -75.97157    -76.20641
  149     1.3059    -75.97022    -76.20527
  150     1.3109    -75.96886    -76.20413
  151     1.3159    -75.96751    -76.20299
  152     1.3209    -75.96616    -76.20185
  153     1.3259    -75.96480    -76.20071
  154     1.3309    -75.96345    -76.19957
  155     1.3359    -75.96209    -76.19843
  156     1.3409    -75.96074    -76.19729
  157     1.3459    -75.95939    -76.19615
  158     1.3509    -75.95803    -76.19501
  159     1.3559    -75.95668    -76.19388
  160     1.3609    -75.95533    -76.19274
  161     1.3659    -75.95398    -76.19160
  162     1.3709    -75.95263    -76.19047
  163     1.3759    -75.95128    -76.18933
  164     1.3809    -75.94994    -76.18820
  165     1.3859    -75.94859    -76.18707
  166     1.3909    -75.94725    -76.18594
  167     1.3959    -75.94591    -76.18481
  168     1.4009    -75.94457    -76.18368
  169     1.4059    -75.94323    -76.18256
  170     1.4109    -75.94190    -76.18144
  171     1.4159    -75.94056    -76.18032
  172     1.4209    -75.93923    -76.17920
  173     1.4259    -75.93790    -76.17809
  174     1.4309    -75.93658    -76.17697
  175     1.4359    -75.93525    -76.17586
  176     1.4409    -75.93393    -76.17476
  177     1.4459    -75.93262    -76.17365
  178     1.4509    -75.93130    -76.17255
  179     1.4559    -75.92999    -76.17145
  180     1.4609    -75.92868    -76.17036
  181     1.4659    -75.92737    -76.16926
  182     1.4709    -75.92607    -76.16818
  183     1.4759    -75.92477    -76.16709
  184     1.4809    -75.92347    -76.16601
  185     1.4859    -75.92218    -76.16493
  186     1.4909    -75.92089    -76.16385
  187     1.4959    -75.91960    -76.16278
  188     1.5009    -75.91832    -76.16171
  189     1.5059    -75.91704    -76.16065
  190     1.5109    -75.91576    -76.15959
  191     1.5159    -75.91449    -76.15853
  192     1.5209    -75.91322    -76.15748
  193     1.5259    -75.91195    -76.15643
  194     1.5309    -75.91069    -76.15538
  195     1.5359    -75.90944    -76.15434
  196     1.5409    -75.90818    -76.15330
  197     1.5459    -75.90693    -76.15227
  198     1.5509    -75.90568    -76.15124
  199     1.5559    -75.90444    -76.15022
  200     1.5609    -75.90320    -76.14920
  201     1.5659    -75.90197    -76.14818
  202     1.5709    -75.90074    -76.14717
  203     1.5759    -75.89951    -76.14616
  204     1.5809    -75.89829    -76.14516
  205     1.5859    -75.89707    -76.14416
  206     1.5909    -75.89586    -76.14316
  207     1.5959    -75.89465    -76.14217
  208     1.6009    -75.89344    -76.14118
  209     1.6059    -75.89224    -76.14020
  210     1.6109    -75.89104    -76.13923
  211     1.6159    -75.88985    -76.13825
  212     1.6209    -75.88866    -76.13729
  213     1.6259    -75.88747    -76.13632
  214     1.6309    -75.88629    -76.13536
  215     1.6359    -75.88511    -76.13441
  216     1.6409    -75.88394    -76.13346
  217     1.6459    -75.88277    -76.13252
  218     1.6509    -75.88161    -76.13157
  219     1.6559    -75.88045    -76.13064
  220     1.6609    -75.87929    -76.12971
  221     1.6659    -75.87814    -76.12878
  222     1.6709    -75.87700    -76.12786
  223     1.6759    -75.87585    -76.12694
  224     1.6809    -75.87472    -76.12603
  225     1.6859    -75.87358    -76.12512
  226     1.6909    -75.87245    -76.12422
  227     1.6959    -75.87133    -76.12332
  228     1.7009    -75.87021    -76.12243
  229     1.7059    -75.86909    -76.12154
  230     1.7109    -75.86798    -76.12066
  231     1.7159    -75.86687    -76.11978
  232     1.7209    -75.86577    -76.11891
  233     1.7259    -75.86467    -76.11804
  234     1.7309    -75.86358    -76.11718
  235     1.7359    -75.86249    -76.11632
  236     1.7409    -75.86140    -76.11546
  237     1.7459    -75.86032    -76.11461
  238     1.7509    -75.85924    -76.11377
  239     1.7559    -75.85817    -76.11293
  240     1.7609    -75.85710    -76.11209
  241     1.7659    -75.85604    -76.11126
  242     1.7709    -75.85498    -76.11044
  243     1.7759    -75.85392    -76.10962
  244     1.7809    -75.85287    -76.10880
  245     1.7859    -75.85182    -76.10799
  246     1.7909    -75.85078    -76.10718
  247     1.7959    -75.84974    -76.10638
  248     1.8009    -75.84871    -76.10559
  249     1.8059    -75.84768    -76.10480
  250     1.8109    -75.84665    -76.10401
  251     1.8159    -75.84563    -76.10323
 ----  ---------  -----------  -----------
  
 1\1\GINC-NEON\Scan\RMP2-FC\Aug-CC-pVDZ\H2O1\B3M2A1\15-Jun-2018\1\\#MP2
 /aug-cc-pvdz #Density=current #Scan\\Scan of water OH bond distance\\0
 ,1\O\H,1,R\H,1,R2,2,A\\R=0.5659289,250,0.005\R2=0.9659289\A=103.873209
 33\\Version=ES64L-G09RevE.01\State=1-A'\HF=-75.5899073,-75.609015,-75.
 62742,-75.6451472,-75.6622206,-75.6786631,-75.6944969,-75.7097435,-75.
 7244233,-75.7385561,-75.7521611,-75.7652564,-75.7778599,-75.7899884,-7
 5.8016584,-75.8128857,-75.8236855,-75.8340724,-75.8440605,-75.8536635,
 -75.8628943,-75.8717658,-75.8802899,-75.8884786,-75.896343,-75.9038942
 ,-75.9111425,-75.9180982,-75.924771,-75.9311704,-75.9373055,-75.943185
 1,-75.9488176,-75.9542112,-75.9593738,-75.964313,-75.9690362,-75.97355
 04,-75.9778626,-75.9819794,-75.9859071,-75.9896519,-75.9932198,-75.996
 6165,-75.9998477,-76.0029187,-76.0058347,-76.0086007,-76.0112217,-76.0
 137023,-76.016047,-76.0182602,-76.0203463,-76.0223093,-76.0241533,-76.
 025882,-76.0274992,-76.0290085,-76.0304134,-76.0317173,-76.0329235,-76
 .0340351,-76.0350553,-76.0359869,-76.0368329,-76.0375961,-76.0382791,-
 76.0388847,-76.0394153,-76.0398734,-76.0402614,-76.0405816,-76.0408362
 ,-76.0410275,-76.0411575,-76.0412283,-76.0412419,-76.0412002,-76.04110
 5,-76.0409581,-76.0407614,-76.0405165,-76.040225,-76.0398886,-76.03950
 88,-76.0390871,-76.038625,-76.0381239,-76.0375851,-76.0370101,-76.0364
 ,-76.0357561,-76.0350797,-76.0343719,-76.0336339,-76.0328667,-76.03207
 15,-76.0312492,-76.030401,-76.0295277,-76.0286304,-76.0277099,-76.0267
 671,-76.0258029,-76.0248182,-76.0238137,-76.0227902,-76.0217485,-76.02
 06894,-76.0196135,-76.0185215,-76.0174142,-76.0162921,-76.015156,-76.0
 140063,-76.0128438,-76.0116689,-76.0104822,-76.0092843,-76.0080758,-76
 .006857,-76.0056285,-76.0043907,-76.0031442,-76.0018893,-76.0006266,-7
 5.9993563,-75.998079,-75.996795,-75.9955047,-75.9942084,-75.9929065,-7
 5.9915994,-75.9902874,-75.9889708,-75.98765,-75.9863251,-75.9849966,-7
 5.9836647,-75.9823296,-75.9809917,-75.9796513,-75.9783084,-75.9769635,
 -75.9756167,-75.9742683,-75.9729185,-75.9715674,-75.9702154,-75.968862
 5,-75.9675091,-75.9661552,-75.9648011,-75.963447,-75.9620929,-75.96073
 92,-75.9593858,-75.9580331,-75.9566811,-75.95533,-75.9539799,-75.95263
 1,-75.9512833,-75.9499371,-75.9485924,-75.9472494,-75.9459081,-75.9445
 688,-75.9432314,-75.9418961,-75.940563,-75.9392322,-75.9379038,-75.936
 5779,-75.9352545,-75.9339338,-75.9326158,-75.9313006,-75.9299883,-75.9
 28679,-75.9273727,-75.9260694,-75.9247693,-75.9234725,-75.9221789,-75.
 9208886,-75.9196018,-75.9183184,-75.9170385,-75.9157621,-75.9144893,-7
 5.9132202,-75.9119547,-75.910693,-75.909435,-75.9081808,-75.9069305,-7
 5.905684,-75.9044415,-75.9032028,-75.9019682,-75.9007375,-75.8995109,-
 75.8982883,-75.8970698,-75.8958553,-75.894645,-75.8934389,-75.8922368,
 -75.891039,-75.8898454,-75.8886559,-75.8874707,-75.8862898,-75.885113,
 -75.8839406,-75.8827724,-75.8816085,-75.8804489,-75.8792937,-75.878142
 7,-75.876996,-75.8758537,-75.8747157,-75.8735821,-75.8724528,-75.87132
 78,-75.8702072,-75.869091,-75.8679791,-75.8668716,-75.8657684,-75.8646
 696,-75.8635751,-75.862485,-75.8613993,-75.8603179,-75.8592408,-75.858
 1681,-75.8570998,-75.8560358,-75.8549762,-75.8539209,-75.8528699,-75.8
 518232,-75.8507809,-75.8497429,-75.8487092,-75.8476799,-75.8466548,-75
 .845634\MP2=-75.7916794,-75.8110565,-75.8297294,-75.847723,-75.865061,
 -75.8817666,-75.8978619,-75.9133682,-75.9283061,-75.9426952,-75.956554
 8,-75.969903,-75.9827577,-75.9951357,-76.0070537,-76.0185272,-76.02957
 16,-76.0402016,-76.0504313,-76.0602743,-76.0697438,-76.0788525,-76.087
 6126,-76.0960358,-76.1041335,-76.1119168,-76.1193961,-76.1265816,-76.1
 334833,-76.1401105,-76.1464724,-76.1525779,-76.1584355,-76.1640534,-76
 .1694396,-76.1746017,-76.1795472,-76.1842831,-76.1888164,-76.1931538,-
 76.1973017,-76.2012662,-76.2050535,-76.2086693,-76.2121192,-76.2154087
 ,-76.218543,-76.2215271,-76.224366,-76.2270643,-76.2296268,-76.2320577
 ,-76.2343614,-76.236542,-76.2386035,-76.2405498,-76.2423847,-76.244111
 7,-76.2457344,-76.2472562,-76.2486804,-76.2500101,-76.2512485,-76.2523
 985,-76.253463,-76.2544449,-76.2553467,-76.2561713,-76.256921,-76.2575
 985,-76.258206,-76.2587458,-76.2592203,-76.2596316,-76.2599818,-76.260
 2729,-76.2605069,-76.2606858,-76.2608114,-76.2608855,-76.2609098,-76.2
 60886,-76.2608158,-76.2607008,-76.2605425,-76.2603424,-76.260102,-76.2
 598226,-76.2595056,-76.2591524,-76.2587642,-76.2583423,-76.2578879,-76
 .257402,-76.256886,-76.2563408,-76.2557675,-76.2551672,-76.2545409,-76
 .2538895,-76.2532139,-76.2525151,-76.251794,-76.2510514,-76.2502882,-7
 6.249505,-76.2487028,-76.2478823,-76.2470442,-76.2461892,-76.2453181,-
 76.2444314,-76.2435298,-76.2426139,-76.2416844,-76.2407419,-76.2397868
 ,-76.2388198,-76.2378414,-76.2368521,-76.2358525,-76.2348429,-76.23382
 39,-76.2327959,-76.2317595,-76.2307149,-76.2296626,-76.2286031,-76.227
 5367,-76.2264638,-76.2253847,-76.2242999,-76.2232096,-76.2221143,-76.2
 210142,-76.2199096,-76.2188009,-76.2176883,-76.2165721,-76.2154527,-76
 .2143303,-76.2132051,-76.2120774,-76.2109475,-76.2098155,-76.2086818,-
 76.2075465,-76.2064099,-76.2052722,-76.2041336,-76.2029942,-76.2018544
 ,-76.2007142,-76.1995738,-76.1984335,-76.1972934,-76.1961536,-76.19501
 44,-76.1938758,-76.1927381,-76.1916014,-76.1904658,-76.1893314,-76.188
 1985,-76.1870671,-76.1859373,-76.1848093,-76.1836832,-76.1825592,-76.1
 814372,-76.1803175,-76.1792001,-76.1780852,-76.1769728,-76.175863,-76.
 174756,-76.1736517,-76.1725504,-76.171452,-76.1703567,-76.1692646,-76.
 1681756,-76.1670899,-76.1660076,-76.1649288,-76.1638534,-76.1627815,-7
 6.1617133,-76.1606488,-76.159588,-76.1585309,-76.1574777,-76.1564284,-
 76.1553831,-76.1543417,-76.1533044,-76.1522711,-76.1512419,-76.1502169
 ,-76.1491961,-76.1481796,-76.1471673,-76.1461593,-76.1451556,-76.14415
 63,-76.1431614,-76.142171,-76.1411849,-76.1402034,-76.1392264,-76.1382
 538,-76.1372859,-76.1363225,-76.1353637,-76.1344095,-76.13346,-76.1325
 151,-76.1315748,-76.1306392,-76.1297084,-76.1287822,-76.1278608,-76.12
 69441,-76.1260321,-76.1251249,-76.1242225,-76.1233248,-76.1224319,-76.
 1215438,-76.1206605,-76.119782,-76.1189084,-76.1180395,-76.1171755,-76
 .1163163,-76.1154619,-76.1146123,-76.1137676,-76.1129277,-76.1120927,-
 76.1112625,-76.1104372,-76.1096166,-76.108801,-76.1079901,-76.1071842,
 -76.106383,-76.1055867,-76.1047952,-76.1040086,-76.1032268\RMSD=4.909e
 -09,4.098e-09,4.097e-09,4.097e-09,4.097e-09,4.098e-09,4.100e-09,4.103e
 -09,4.106e-09,4.110e-09,4.114e-09,4.119e-09,4.125e-09,4.132e-09,4.140e
 -09,4.149e-09,4.159e-09,4.170e-09,4.182e-09,4.196e-09,4.211e-09,4.228e
 -09,4.246e-09,4.265e-09,4.287e-09,4.310e-09,4.335e-09,4.361e-09,4.389e
 -09,4.419e-09,4.451e-09,4.484e-09,4.519e-09,4.556e-09,4.595e-09,4.635e
 -09,4.677e-09,4.720e-09,4.765e-09,4.811e-09,4.858e-09,4.907e-09,4.957e
 -09,5.008e-09,5.060e-09,5.113e-09,5.168e-09,5.223e-09,5.279e-09,5.336e
 -09,5.393e-09,5.451e-09,5.510e-09,5.569e-09,5.629e-09,5.689e-09,5.749e
 -09,5.810e-09,5.871e-09,5.932e-09,5.994e-09,6.055e-09,6.117e-09,6.178e
 -09,6.240e-09,6.301e-09,6.363e-09,6.425e-09,6.486e-09,6.547e-09,6.608e
 -09,6.670e-09,6.731e-09,6.792e-09,6.852e-09,6.913e-09,6.974e-09,7.035e
 -09,7.095e-09,7.156e-09,6.973e-09,7.278e-09,7.339e-09,7.400e-09,7.462e
 -09,7.524e-09,7.586e-09,7.649e-09,7.712e-09,7.776e-09,7.841e-09,7.906e
 -09,7.972e-09,8.040e-09,8.108e-09,8.177e-09,8.248e-09,8.320e-09,8.394e
 -09,8.469e-09,8.545e-09,8.623e-09,8.703e-09,8.785e-09,8.869e-09,8.955e
 -09,9.043e-09,9.133e-09,9.225e-09,9.320e-09,9.417e-09,9.516e-09,9.618e
 -09,9.722e-09,9.828e-09,9.938e-09,2.174e-09,2.220e-09,2.265e-09,2.312e
 -09,2.359e-09,2.406e-09,2.454e-09,2.503e-09,2.552e-09,2.601e-09,2.651e
 -09,2.700e-09,2.750e-09,2.801e-09,2.851e-09,2.901e-09,2.951e-09,3.001e
 -09,3.051e-09,3.101e-09,3.150e-09,3.200e-09,3.248e-09,3.297e-09,3.345e
 -09,3.393e-09,3.440e-09,3.486e-09,3.532e-09,3.578e-09,3.623e-09,3.667e
 -09,3.710e-09,3.753e-09,3.795e-09,3.836e-09,3.876e-09,3.916e-09,3.955e
 -09,3.993e-09,4.030e-09,4.066e-09,4.101e-09,4.136e-09,4.169e-09,4.202e
 -09,4.233e-09,4.264e-09,4.294e-09,4.322e-09,4.350e-09,4.377e-09,4.402e
 -09,4.427e-09,4.451e-09,4.474e-09,4.495e-09,4.516e-09,4.536e-09,4.554e
 -09,4.572e-09,4.589e-09,4.604e-09,4.619e-09,4.633e-09,4.645e-09,4.657e
 -09,4.667e-09,4.677e-09,4.685e-09,4.693e-09,4.699e-09,4.705e-09,4.709e
 -09,4.713e-09,4.715e-09,4.717e-09,4.717e-09,4.717e-09,4.716e-09,4.713e
 -09,4.710e-09,4.706e-09,4.701e-09,4.695e-09,4.688e-09,4.680e-09,4.672e
 -09,4.662e-09,4.652e-09,4.641e-09,4.628e-09,4.616e-09,4.602e-09,4.588e
 -09,4.572e-09,4.556e-09,4.540e-09,4.522e-09,4.504e-09,4.485e-09,4.466e
 -09,4.445e-09,4.425e-09,4.403e-09,4.381e-09,4.358e-09,4.335e-09,4.312e
 -09,4.287e-09,4.263e-09,4.237e-09,4.212e-09,4.185e-09,4.159e-09,4.132e
 -09,4.105e-09,4.077e-09,4.049e-09,4.021e-09,3.992e-09,3.963e-09,3.934e
 -09,3.905e-09,3.875e-09,3.845e-09,3.816e-09,3.786e-09,3.755e-09,3.725e
 -09,3.695e-09,3.664e-09,3.634e-09,3.603e-09,3.573e-09\PG=CS [SG(H2O1)]
 \\@


 HICKORY, DICKORY, DOCK
 TWO MICE RAN UP THE CLOCK
 THE CLOCK STRUCK ONE...
 THE OTHER ESCAPED WITH MINOR INJURIES.
 Job cpu time:       0 days  0 hours 29 minutes  2.8 seconds.
 File lengths (MBytes):  RWF=      5 Int=      0 D2E=      0 Chk=      3 Scr=      1
 Normal termination of Gaussian 09 at Fri Jun 15 17:52:50 2018.
