Water trimer freq calc                                                  
Freq      RMP2-FC                                                     Aug-CC-pVDZ         
Number of atoms                            I                9
Info1-9                                    I   N=           9
          28          27        1002           0           0         100
           6           2           1
Full Title                                 C   N=           2
Water trimer freq calc  
Route                                      C   N=           6
#MP2/aug-cc-pvdz #Density=current #Opt=Tight #Frequency=Anha
rmonic      
Charge                                     I                0
Multiplicity                               I                1
Number of electrons                        I               30
Number of alpha electrons                  I               15
Number of beta electrons                   I               15
Number of basis functions                  I              123
Number of independent functions            I              123
Number of point charges in /Mol/           I                0
Number of translation vectors              I                0
Atomic numbers                             I   N=           9
           8           8           8           1           1           1
           1           1           1
Nuclear charges                            R   N=           9
  8.00000000E+00  8.00000000E+00  8.00000000E+00  1.00000000E+00  1.00000000E+00
  1.00000000E+00  1.00000000E+00  1.00000000E+00  1.00000000E+00
Current cartesian coordinates              R   N=          27
 -2.85136294E+00 -1.09524558E+00 -1.57793470E-01  2.38456662E+00 -1.90593950E+00
 -1.77423618E-01  4.64917070E-01  3.01535839E+00  2.09016872E-01 -1.24750029E+00
 -2.00453802E+00 -3.45879070E-02 -3.94329451E+00 -1.87799392E+00  1.07470446E+00
  2.31574348E+00 -6.45193230E-02 -2.25449349E-02  3.63245437E+00 -2.44213794E+00
  1.03890545E+00 -1.10263778E+00  2.04162861E+00  9.69797397E-02  3.60268763E-01
  4.23417413E+00 -1.14385508E+00
Number of symbols in /Mol/                 I                0
Force Field                                I                0
Atom Types                                 C   N=           9
                                                            
                                                
Int Atom Types                             I   N=           9
           0           0           0           0           0           0
           0           0           0
MM charges                                 R   N=           9
  0.00000000E+00  0.00000000E+00  0.00000000E+00  0.00000000E+00  0.00000000E+00
  0.00000000E+00  0.00000000E+00  0.00000000E+00  0.00000000E+00
Integer atomic weights                     I   N=           9
          16          16          16           1           1           1
           1           1           1
Real atomic weights                        R   N=           9
  1.59949146E+01  1.59949146E+01  1.59949146E+01  1.00782504E+00  1.00782504E+00
  1.00782504E+00  1.00782504E+00  1.00782504E+00  1.00782504E+00
Atom fragment info                         I   N=           9
           0           0           0           0           0           0
           0           0           0
Atom residue num                           I   N=           9
           0           0           0           0           0           0
           0           0           0
Nuclear spins                              I   N=           9
           0           0           0           1           1           1
           1           1           1
Nuclear ZEff                               R   N=           9
 -5.60000000E+00 -5.60000000E+00 -5.60000000E+00 -1.00000000E+00 -1.00000000E+00
 -1.00000000E+00 -1.00000000E+00 -1.00000000E+00 -1.00000000E+00
Nuclear ZNuc                               R   N=           9
  8.00000000E+00  8.00000000E+00  8.00000000E+00  1.00000000E+00  1.00000000E+00
  1.00000000E+00  1.00000000E+00  1.00000000E+00  1.00000000E+00
Nuclear QMom                               R   N=           9
  0.00000000E+00  0.00000000E+00  0.00000000E+00  0.00000000E+00  0.00000000E+00
  0.00000000E+00  0.00000000E+00  0.00000000E+00  0.00000000E+00
Nuclear GFac                               R   N=           9
  0.00000000E+00  0.00000000E+00  0.00000000E+00  2.79284600E+00  2.79284600E+00
  2.79284600E+00  2.79284600E+00  2.79284600E+00  2.79284600E+00
MicOpt                                     I   N=           9
          -1          -1          -1          -1          -1          -1
          -1          -1          -1
Number of residues                         I                0
Number of secondary structures             I                0
Redundant internal dimensions              I   N=           4
          33           9          12          12
Redundant internal coordinate indices      I   N=         132
           1           4           0           0           1           5
           0           0           1           8           0           0
           2           4           0           0           2           6
           0           0           2           7           0           0
           3           6           0           0           3           8
           0           0           3           9           0           0
           4           1           5           0           4           1
           8           0           5           1           8           0
           4           2           6           0           4           2
           7           0           6           2           7           0
           6           3           8           0           6           3
           9           0           8           3           9           0
           1           4           2           0           2           6
           3           0           1           8           3           0
           5           1           4           2           8           1
           4           2           4           1           8           3
           5           1           8           3           6           2
           4           1           7           2           4           1
           4           2           6           3           7           2
           6           3           8           3           6           2
           9           3           6           2           6           3
           8           1           9           3           8           1
Redundant internal coordinates             R   N=          33
  1.84780079E+00  1.82320066E+00  3.60040675E+00  3.63621145E+00  1.84920316E+00
  1.82323586E+00  3.60067021E+00  1.84876450E+00  1.82393136E+00  1.83744567E+00
  1.57323612E+00  2.23585920E+00  1.55733222E+00  2.27769062E+00  1.83635905E+00
  1.55222171E+00  2.15720608E+00  1.83211693E+00  2.58874498E+00  2.63888106E+00
  2.63622230E+00 -2.52125564E+00 -2.55459821E-01  6.97923093E-02  1.98408679E+00
  2.75356315E-01  2.18636632E+00 -5.72175298E-02 -2.36150705E+00 -2.55660623E-03
 -1.87583306E+00  2.66430298E-02  2.20145529E+00
ZRed-IntVec                                I   N=          33
           0           0           0           0           0           0
           0           0           0           0           0           0
           0           0           0           0           0           0
           0           0           0           0           0           0
           0           0           0           0           0           0
           0           0           0
ZRed-FPVec                                 R   N=          33
  0.00000000E+00  0.00000000E+00  0.00000000E+00  0.00000000E+00  0.00000000E+00
  0.00000000E+00  0.00000000E+00  0.00000000E+00  0.00000000E+00  0.00000000E+00
  0.00000000E+00  0.00000000E+00  0.00000000E+00  0.00000000E+00  0.00000000E+00
  0.00000000E+00  0.00000000E+00  0.00000000E+00  0.00000000E+00  0.00000000E+00
  0.00000000E+00  0.00000000E+00  0.00000000E+00  0.00000000E+00  0.00000000E+00
  0.00000000E+00  0.00000000E+00  0.00000000E+00  0.00000000E+00  0.00000000E+00
  0.00000000E+00  0.00000000E+00  0.00000000E+00
ZRed-Constraint1                           R   N=          33
  1.84780079E+00  1.82320066E+00  3.60040675E+00  3.63621145E+00  1.84920316E+00
  1.82323586E+00  3.60067021E+00  1.84876450E+00  1.82393136E+00  1.83744567E+00
  1.57323612E+00  2.23585920E+00  1.55733222E+00  2.27769062E+00  1.83635905E+00
  1.55222171E+00  2.15720608E+00  1.83211693E+00  2.58874498E+00  2.63888106E+00
  2.63622230E+00 -2.52125564E+00 -2.55459821E-01  6.97923093E-02  1.98408679E+00
  2.75356315E-01  2.18636632E+00 -5.72175298E-02 -2.36150705E+00 -2.55660623E-03
 -1.87583306E+00  2.66430298E-02  2.20145529E+00
ZRed-Constraint2                           R   N=          33
  1.83044058E+00  1.80789419E+00  3.61108415E+00  3.64674062E+00  1.83182839E+00
  1.80783247E+00  3.61663573E+00  1.83166891E+00  1.80885379E+00  1.84813372E+00
  1.57699306E+00  2.24158872E+00  1.56385648E+00  2.30072363E+00  1.84595948E+00
  1.55964874E+00  2.17146906E+00  1.84237389E+00  2.59235834E+00  2.63032300E+00
  2.63039573E+00 -2.48669134E+00 -2.10834380E-01  8.24219977E-02  2.01554673E+00
  2.07164168E-01  2.14450671E+00 -2.28945130E-03 -2.33587211E+00 -3.88791491E-02
 -1.93282356E+00  4.64540631E-03  2.19863731E+00
SymInf integers                            I   N=          26
           1           1           1           1           1           0
           0           0           0           0           0           0
           0           0           0           0           0           0
           0           0           0           0           0           0
           0           0
RotTr to input orientation                 R   N=          12
 -3.89741035E-03  4.47342042E-02 -9.98991322E-01 -3.59717489E-02  9.98346083E-01
  4.48456490E-02  9.99345207E-01  3.61102469E-02 -2.28179680E-03  1.88341303E-02
 -1.39200323E-03 -4.21149562E-04
Number of contracted shells                I               57
Number of primitive shells                 I              111
Pure/Cartesian d shells                    I                0
Pure/Cartesian f shells                    I                0
Highest angular momentum                   I                2
Largest degree of contraction              I                7
Shell types                                I   N=          57
           0           0           0           0           1           1
           1          -2          -2           0           0           0
           0           1           1           1          -2          -2
           0           0           0           0           1           1
           1          -2          -2           0           0           0
           1           1           0           0           0           1
           1           0           0           0           1           1
           0           0           0           1           1           0
           0           0           1           1           0           0
           0           1           1
Number of primitives per shell             I   N=          57
           7           7           1           1           3           1
           1           1           1           7           7           1
           1           3           1           1           1           1
           7           7           1           1           3           1
           1           1           1           3           1           1
           1           1           3           1           1           1
           1           3           1           1           1           1
           3           1           1           1           1           3
           1           1           1           1           3           1
           1           1           1
Shell to atom map                          I   N=          57
           1           1           1           1           1           1
           1           1           1           2           2           2
           2           2           2           2           2           2
           3           3           3           3           3           3
           3           3           3           4           4           4
           4           4           5           5           5           5
           5           6           6           6           6           6
           7           7           7           7           7           8
           8           8           8           8           9           9
           9           9           9
Primitive exponents                        R   N=         111
  1.17200000E+04  1.75900000E+03  4.00800000E+02  1.13700000E+02  3.70300000E+01
  1.32700000E+01  5.02500000E+00  1.17200000E+04  4.00800000E+02  1.13700000E+02
  3.70300000E+01  1.32700000E+01  5.02500000E+00  1.01300000E+00  3.02300000E-01
  7.89600000E-02  1.77000000E+01  3.85400000E+00  1.04600000E+00  2.75300000E-01
  6.85600000E-02  1.18500000E+00  3.32000000E-01  1.17200000E+04  1.75900000E+03
  4.00800000E+02  1.13700000E+02  3.70300000E+01  1.32700000E+01  5.02500000E+00
  1.17200000E+04  4.00800000E+02  1.13700000E+02  3.70300000E+01  1.32700000E+01
  5.02500000E+00  1.01300000E+00  3.02300000E-01  7.89600000E-02  1.77000000E+01
  3.85400000E+00  1.04600000E+00  2.75300000E-01  6.85600000E-02  1.18500000E+00
  3.32000000E-01  1.17200000E+04  1.75900000E+03  4.00800000E+02  1.13700000E+02
  3.70300000E+01  1.32700000E+01  5.02500000E+00  1.17200000E+04  4.00800000E+02
  1.13700000E+02  3.70300000E+01  1.32700000E+01  5.02500000E+00  1.01300000E+00
  3.02300000E-01  7.89600000E-02  1.77000000E+01  3.85400000E+00  1.04600000E+00
  2.75300000E-01  6.85600000E-02  1.18500000E+00  3.32000000E-01  1.30100000E+01
  1.96200000E+00  4.44600000E-01  1.22000000E-01  2.97400000E-02  7.27000000E-01
  1.41000000E-01  1.30100000E+01  1.96200000E+00  4.44600000E-01  1.22000000E-01
  2.97400000E-02  7.27000000E-01  1.41000000E-01  1.30100000E+01  1.96200000E+00
  4.44600000E-01  1.22000000E-01  2.97400000E-02  7.27000000E-01  1.41000000E-01
  1.30100000E+01  1.96200000E+00  4.44600000E-01  1.22000000E-01  2.97400000E-02
  7.27000000E-01  1.41000000E-01  1.30100000E+01  1.96200000E+00  4.44600000E-01
  1.22000000E-01  2.97400000E-02  7.27000000E-01  1.41000000E-01  1.30100000E+01
  1.96200000E+00  4.44600000E-01  1.22000000E-01  2.97400000E-02  7.27000000E-01
  1.41000000E-01
Contraction coefficients                   R   N=         111
  7.11864434E-04  5.48520199E-03  2.79099296E-02  1.05133208E-01  2.84002490E-01
  4.51673946E-01  2.73208126E-01  7.69030046E-06  3.13484579E-04 -2.96614853E-03
 -1.08753543E-02 -1.20753817E-01 -1.06275264E-01  1.09597548E+00  1.00000000E+00
  1.00000000E+00  6.26791663E-02  3.33536566E-01  7.41239642E-01  1.00000000E+00
  1.00000000E+00  1.00000000E+00  1.00000000E+00  7.11864434E-04  5.48520199E-03
  2.79099296E-02  1.05133208E-01  2.84002490E-01  4.51673946E-01  2.73208126E-01
  7.69030046E-06  3.13484579E-04 -2.96614853E-03 -1.08753543E-02 -1.20753817E-01
 -1.06275264E-01  1.09597548E+00  1.00000000E+00  1.00000000E+00  6.26791663E-02
  3.33536566E-01  7.41239642E-01  1.00000000E+00  1.00000000E+00  1.00000000E+00
  1.00000000E+00  7.11864434E-04  5.48520199E-03  2.79099296E-02  1.05133208E-01
  2.84002490E-01  4.51673946E-01  2.73208126E-01  7.69030046E-06  3.13484579E-04
 -2.96614853E-03 -1.08753543E-02 -1.20753817E-01 -1.06275264E-01  1.09597548E+00
  1.00000000E+00  1.00000000E+00  6.26791663E-02  3.33536566E-01  7.41239642E-01
  1.00000000E+00  1.00000000E+00  1.00000000E+00  1.00000000E+00  3.34987264E-02
  2.34800801E-01  8.13682958E-01  1.00000000E+00  1.00000000E+00  1.00000000E+00
  1.00000000E+00  3.34987264E-02  2.34800801E-01  8.13682958E-01  1.00000000E+00
  1.00000000E+00  1.00000000E+00  1.00000000E+00  3.34987264E-02  2.34800801E-01
  8.13682958E-01  1.00000000E+00  1.00000000E+00  1.00000000E+00  1.00000000E+00
  3.34987264E-02  2.34800801E-01  8.13682958E-01  1.00000000E+00  1.00000000E+00
  1.00000000E+00  1.00000000E+00  3.34987264E-02  2.34800801E-01  8.13682958E-01
  1.00000000E+00  1.00000000E+00  1.00000000E+00  1.00000000E+00  3.34987264E-02
  2.34800801E-01  8.13682958E-01  1.00000000E+00  1.00000000E+00  1.00000000E+00
  1.00000000E+00
Coordinates of each shell                  R   N=         171
 -2.85136294E+00 -1.09524558E+00 -1.57793470E-01 -2.85136294E+00 -1.09524558E+00
 -1.57793470E-01 -2.85136294E+00 -1.09524558E+00 -1.57793470E-01 -2.85136294E+00
 -1.09524558E+00 -1.57793470E-01 -2.85136294E+00 -1.09524558E+00 -1.57793470E-01
 -2.85136294E+00 -1.09524558E+00 -1.57793470E-01 -2.85136294E+00 -1.09524558E+00
 -1.57793470E-01 -2.85136294E+00 -1.09524558E+00 -1.57793470E-01 -2.85136294E+00
 -1.09524558E+00 -1.57793470E-01  2.38456662E+00 -1.90593950E+00 -1.77423618E-01
  2.38456662E+00 -1.90593950E+00 -1.77423618E-01  2.38456662E+00 -1.90593950E+00
 -1.77423618E-01  2.38456662E+00 -1.90593950E+00 -1.77423618E-01  2.38456662E+00
 -1.90593950E+00 -1.77423618E-01  2.38456662E+00 -1.90593950E+00 -1.77423618E-01
  2.38456662E+00 -1.90593950E+00 -1.77423618E-01  2.38456662E+00 -1.90593950E+00
 -1.77423618E-01  2.38456662E+00 -1.90593950E+00 -1.77423618E-01  4.64917070E-01
  3.01535839E+00  2.09016872E-01  4.64917070E-01  3.01535839E+00  2.09016872E-01
  4.64917070E-01  3.01535839E+00  2.09016872E-01  4.64917070E-01  3.01535839E+00
  2.09016872E-01  4.64917070E-01  3.01535839E+00  2.09016872E-01  4.64917070E-01
  3.01535839E+00  2.09016872E-01  4.64917070E-01  3.01535839E+00  2.09016872E-01
  4.64917070E-01  3.01535839E+00  2.09016872E-01  4.64917070E-01  3.01535839E+00
  2.09016872E-01 -1.24750029E+00 -2.00453802E+00 -3.45879070E-02 -1.24750029E+00
 -2.00453802E+00 -3.45879070E-02 -1.24750029E+00 -2.00453802E+00 -3.45879070E-02
 -1.24750029E+00 -2.00453802E+00 -3.45879070E-02 -1.24750029E+00 -2.00453802E+00
 -3.45879070E-02 -3.94329451E+00 -1.87799392E+00  1.07470446E+00 -3.94329451E+00
 -1.87799392E+00  1.07470446E+00 -3.94329451E+00 -1.87799392E+00  1.07470446E+00
 -3.94329451E+00 -1.87799392E+00  1.07470446E+00 -3.94329451E+00 -1.87799392E+00
  1.07470446E+00  2.31574348E+00 -6.45193230E-02 -2.25449349E-02  2.31574348E+00
 -6.45193230E-02 -2.25449349E-02  2.31574348E+00 -6.45193230E-02 -2.25449349E-02
  2.31574348E+00 -6.45193230E-02 -2.25449349E-02  2.31574348E+00 -6.45193230E-02
 -2.25449349E-02  3.63245437E+00 -2.44213794E+00  1.03890545E+00  3.63245437E+00
 -2.44213794E+00  1.03890545E+00  3.63245437E+00 -2.44213794E+00  1.03890545E+00
  3.63245437E+00 -2.44213794E+00  1.03890545E+00  3.63245437E+00 -2.44213794E+00
  1.03890545E+00 -1.10263778E+00  2.04162861E+00  9.69797397E-02 -1.10263778E+00
  2.04162861E+00  9.69797397E-02 -1.10263778E+00  2.04162861E+00  9.69797397E-02
 -1.10263778E+00  2.04162861E+00  9.69797397E-02 -1.10263778E+00  2.04162861E+00
  9.69797397E-02  3.60268763E-01  4.23417413E+00 -1.14385508E+00  3.60268763E-01
  4.23417413E+00 -1.14385508E+00  3.60268763E-01  4.23417413E+00 -1.14385508E+00
  3.60268763E-01  4.23417413E+00 -1.14385508E+00  3.60268763E-01  4.23417413E+00
 -1.14385508E+00
Num ILSW                                   I              100
ILSW                                       I   N=         100
           0           0           0           1           2           0
           0           0           0           0           0          -1
           5           0           0           0           2           0
           0           0           1           0           1           0
           1           0           0           0           0           0
           0           0      100000           0          -1           0
           0           0           0           0           0           0
           0           0           0           1           1           0
           0 -2000000000           1           0           0           0
           0           0           4          52           0           0
           0           0           0           0           0           0
           0           0           0           0           4           1
           0           0           0           0           0           0
           0           0           0           0           0           0
           0           0           0           0           0           0
           0           0           0           0           0           0
           0           0           0           0
Num RLSW                                   I               52
RLSW                                       R   N=          52
  1.00000000E+00  1.00000000E+00  1.00000000E+00  1.00000000E+00  1.00000000E+00
  0.00000000E+00  0.00000000E+00  1.00000000E+00  0.00000000E+00  0.00000000E+00
  0.00000000E+00  0.00000000E+00  1.00000000E+00  0.00000000E+00  0.00000000E+00
  0.00000000E+00  0.00000000E+00  1.00000000E+00  0.00000000E+00  0.00000000E+00
  0.00000000E+00  0.00000000E+00  1.00000000E+00  0.00000000E+00  0.00000000E+00
  0.00000000E+00  0.00000000E+00  1.00000000E+00  0.00000000E+00  0.00000000E+00
  0.00000000E+00  0.00000000E+00  1.00000000E+00  0.00000000E+00  0.00000000E+00
  0.00000000E+00  0.00000000E+00  0.00000000E+00  1.00000000E+00  1.00000000E+00
  0.00000000E+00  1.00000000E+00  0.00000000E+00  0.00000000E+00  0.00000000E+00
  0.00000000E+00  0.00000000E+00  0.00000000E+00  0.00000000E+00  0.00000000E+00
  0.00000000E+00  0.00000000E+00
MxBond                                     I                3
NBond                                      I   N=           9
           3           3           3           2           1           2
           1           2           1
IBond                                      I   N=          27
           4           5           8           4           6           7
           6           8           9           1           2           0
           1           0           0           2           3           0
           2           0           0           1           3           0
           3           0           0
RBond                                      R   N=          27
  1.00000000E+00  1.00000000E+00  1.00000000E-01  1.00000000E-01  1.00000000E+00
  1.00000000E+00  1.00000000E-01  1.00000000E+00  1.00000000E+00  1.00000000E+00
  1.00000000E-01  0.00000000E+00  1.00000000E+00  0.00000000E+00  0.00000000E+00
  1.00000000E+00  1.00000000E-01  0.00000000E+00  1.00000000E+00  0.00000000E+00
  0.00000000E+00  1.00000000E-01  1.00000000E+00  0.00000000E+00  1.00000000E+00
  0.00000000E+00  0.00000000E+00
Virial Ratio                               R      2.001810350601375E+00
SCF Energy                                 R     -2.281393759823547E+02
MP2 Energy                                 R     -2.288088004677979E+02
Total Energy                               R     -2.288088004677979E+02
Post-SCF wavefunction norm                 R      1.536280548534546E+00
RMS Force                                  R      6.148483077999891E-07
RMS Density                                R      8.580688652549781E-10
NImag                                      I                0
Job Status                                 I                1
Nuclear derivative order                   I                3
External E-field                           R   N=          35
  0.00000000E+00  0.00000000E+00  0.00000000E+00  0.00000000E+00  0.00000000E+00
  0.00000000E+00  0.00000000E+00  0.00000000E+00  0.00000000E+00  0.00000000E+00
  0.00000000E+00  0.00000000E+00  0.00000000E+00  0.00000000E+00  0.00000000E+00
  0.00000000E+00  0.00000000E+00  0.00000000E+00  0.00000000E+00  0.00000000E+00
  0.00000000E+00  0.00000000E+00  0.00000000E+00  0.00000000E+00  0.00000000E+00
  0.00000000E+00  0.00000000E+00  0.00000000E+00  0.00000000E+00  0.00000000E+00
  0.00000000E+00  0.00000000E+00  0.00000000E+00  0.00000000E+00  0.00000000E+00
IOpCl                                      I                0
IROHF                                      I                0
Alpha Orbital Energies                     R   N=         123
 -2.05733732E+01 -2.05728081E+01 -2.05722050E+01 -1.36302071E+00 -1.34523364E+00
 -1.34281373E+00 -7.40314989E-01 -7.06728440E-01 -7.05379843E-01 -6.00156717E-01
 -5.94828005E-01 -5.63937950E-01 -5.13469572E-01 -5.05677310E-01 -5.01226572E-01
  3.30411341E-02  5.10858120E-02  5.20846094E-02  7.87055581E-02  8.47612197E-02
  9.95396678E-02  1.63973282E-01  1.84207347E-01  1.97624736E-01  2.14494688E-01
  2.15965144E-01  2.25484114E-01  2.39646462E-01  2.64690342E-01  2.70073273E-01
  2.83444219E-01  2.93316097E-01  3.07385073E-01  3.17764578E-01  3.36940426E-01
  3.50933142E-01  3.89506726E-01  4.20842849E-01  4.22538901E-01  4.54199037E-01
  4.58922707E-01  4.78421915E-01  4.97589405E-01  5.14418747E-01  5.41771978E-01
  5.44305165E-01  5.68148497E-01  5.94510623E-01  6.13848290E-01  6.21890785E-01
  6.43284005E-01  6.69512282E-01  6.76570596E-01  6.92340399E-01  7.53431957E-01
  7.92239013E-01  7.92653366E-01  8.84427390E-01  9.16301605E-01  9.33071588E-01
  9.94498537E-01  1.02494383E+00  1.04275321E+00  1.13475319E+00  1.15516192E+00
  1.19754704E+00  1.21127144E+00  1.21647661E+00  1.22498277E+00  1.24516441E+00
  1.31085052E+00  1.32001418E+00  1.39128216E+00  1.40881633E+00  1.42145773E+00
  1.48881290E+00  1.54030532E+00  1.55503156E+00  1.62148236E+00  1.62896427E+00
  1.68707855E+00  1.84556133E+00  1.85877908E+00  1.86401529E+00  2.02104373E+00
  2.03070972E+00  2.04850476E+00  2.14495381E+00  2.15519514E+00  2.17980019E+00
  2.21346620E+00  2.27869375E+00  2.29155275E+00  2.38988198E+00  2.42030865E+00
  2.49771199E+00  2.53644854E+00  2.56028404E+00  2.62172548E+00  2.73283307E+00
  2.77360196E+00  2.78842496E+00  2.80082103E+00  2.82788897E+00  2.91678056E+00
  3.06209085E+00  3.09283234E+00  3.17414633E+00  3.68096191E+00  3.71558734E+00
  3.73991025E+00  3.74362957E+00  3.76393201E+00  3.77361485E+00  3.85324600E+00
  3.87275177E+00  3.87990588E+00  4.09906090E+00  4.14154746E+00  4.14696504E+00
  4.33360493E+00  4.40102595E+00  4.41087482E+00
Alpha MO coefficients                      R   N=       15129
  9.97200219E-01  1.64961116E-02 -8.18087683E-03 -6.05984338E-03  3.14188580E-04
 -1.07797208E-03  9.66339995E-04 -7.40547883E-04  1.11981365E-03 -8.88401319E-04
 -7.91046147E-04  4.98110266E-04 -4.64546252E-04 -5.48467621E-06 -5.63705442E-05
 -3.91499881E-05  3.08675620E-05 -1.30736448E-05  3.56282527E-05  1.79864750E-04
  9.78621499E-05 -9.01222166E-05  4.88028228E-05 -1.56237589E-03 -5.43235233E-05
  3.38976316E-04  9.35721479E-04 -1.22218205E-05  8.35003046E-06 -4.45723043E-06
 -5.83744893E-05  1.01836346E-05  8.06243096E-05 -2.79504639E-04 -8.51567382E-05
  2.63988040E-04 -2.11896643E-05  8.72059594E-06  1.01789419E-06  4.51611821E-05
 -2.71629044E-05  1.09803009E-04 -3.60609190E-06 -1.97093780E-05 -1.65245499E-04
  1.78385684E-04 -2.30740401E-03 -6.42924520E-05  3.12175157E-04  6.06452619E-04
 -1.24907896E-06 -2.15878734E-05 -7.92232710E-06 -5.95855430E-05  1.12900407E-04
  6.26465188E-06 -2.68238340E-04 -1.36124867E-05 -1.45032525E-05 -1.23066096E-05
 -1.53945742E-07  5.44848693E-06 -5.89961782E-06  1.84343732E-05  6.22387964E-05
  2.35664056E-06 -5.54554766E-05  3.78372617E-05 -8.88939365E-05  4.82715375E-04
  5.51875063E-03  4.54989157E-04  3.40271844E-04 -1.85979667E-04  2.27273794E-05
 -2.45142919E-03  1.46080683E-03 -2.19276449E-04  3.43160047E-04  2.96393553E-03
  3.05869329E-04 -2.29775122E-04 -1.85232782E-04  2.90240973E-04  6.80832504E-04
  6.83390310E-04 -8.02463970E-04  5.49283822E-06 -7.85964038E-04  4.41824105E-04
 -7.72702755E-05  1.47451045E-05  1.02122546E-05 -3.81610927E-05  3.82822695E-04
 -1.07714186E-04 -1.83303771E-05  1.53849798E-04 -3.17677636E-04  6.79663821E-05
 -2.37034318E-05 -3.11128600E-05 -6.26653947E-05  1.96827216E-04 -1.80946533E-04
 -3.68792739E-05 -2.60216374E-04 -3.91789743E-04  6.68876319E-07 -2.24559084E-05
 -3.82651873E-06 -3.85429638E-04 -3.20792720E-04 -7.17893307E-05 -5.05515849E-05
 -1.10260759E-04  1.54961622E-06  4.92442729E-06  1.00433739E-05 -1.21933925E-05
  2.55026437E-05 -9.32909778E-06 -1.30618612E-05  2.29142061E-03  6.93959126E-06
  3.17584280E-04  7.26790601E-04  1.58990531E-05  4.00483988E-06  1.96981601E-06
  3.95831780E-05  6.73687987E-05  4.81631742E-05  7.06822414E-05  3.12495515E-04
  1.85353982E-04 -2.16818998E-05 -3.55262088E-06 -6.62655870E-06  3.98486512E-07
  5.71843170E-05  1.11769753E-04 -1.73817026E-05  8.86313362E-06 -8.11972126E-05
 -2.48634333E-04 -5.20038160E-03 -1.07484168E-04  3.28028971E-04  4.24997615E-04
 -2.00949895E-05  5.73936607E-06  3.17554531E-06  1.03825118E-04  6.23846659E-05
 -1.61622169E-05  1.04219407E-04  2.58587531E-04 -5.42829025E-05 -1.50940766E-05
  4.58578888E-06  4.34440815E-06 -1.39224595E-05 -1.36992698E-05  6.56123825E-05
  6.27966991E-06 -1.95845846E-05  4.14424187E-05  8.04343343E-05  9.97188728E-01
  1.65005403E-02 -8.21128555E-03 -5.80983685E-03 -1.05645995E-03  1.55485255E-04
 -1.03204292E-03  1.33151204E-03  2.27817860E-04  9.41524763E-04  8.23977109E-04
  4.77991348E-04  4.16237266E-04  6.50803343E-06  9.34450402E-06 -6.60974972E-05
  1.10134028E-06  3.81761697E-05 -3.98903238E-07 -1.08710909E-05  1.91794191E-04
 -1.47487238E-05 -1.16238467E-04 -1.71301277E-06 -6.69458359E-04  4.38879909E-04
  5.22818572E-05  6.87978577E-05  1.31842874E-05  4.01886666E-04 -1.57815744E-04
 -1.41975002E-04 -1.82219633E-05  3.70368470E-04 -3.08383885E-04 -5.05545480E-05
 -4.45781977E-05 -3.51269081E-05  2.35711764E-04 -3.60928892E-05 -1.99393904E-04
 -5.76838757E-05 -5.10697403E-04 -4.36143442E-04 -2.05415976E-05  1.79479581E-05
 -7.01262410E-07 -4.69588529E-05  5.51630097E-04  8.92946650E-05 -3.35560027E-05
  1.76913031E-04  5.33888325E-05  1.06472085E-05 -1.30682192E-05 -4.10026388E-06
 -8.91335141E-05  2.32559727E-05 -2.05331871E-05  4.96012330E-04  5.74978078E-03