 Entering Gaussian System, Link 0=g16
 Input=HOH_scan.gjf
 Output=HOH_scan.log
 Initial command:
 /sw/contrib/gaussian/g16/B01/g16/l1.exe "/scr/Gau-11758.inp" -scrdir="/scr/"
 Entering Link 1 = /sw/contrib/gaussian/g16/B01/g16/l1.exe PID=     11760.
  
 Copyright (c) 1988-2017, Gaussian, Inc.  All Rights Reserved.
  
 This is part of the Gaussian(R) 16 program.  It is based on
 the Gaussian(R) 09 system (copyright 2009, Gaussian, Inc.),
 the Gaussian(R) 03 system (copyright 2003, Gaussian, Inc.),
 the Gaussian(R) 98 system (copyright 1998, Gaussian, Inc.),
 the Gaussian(R) 94 system (copyright 1995, Gaussian, Inc.),
 the Gaussian 92(TM) system (copyright 1992, Gaussian, Inc.),
 the Gaussian 90(TM) system (copyright 1990, Gaussian, Inc.),
 the Gaussian 88(TM) system (copyright 1988, Gaussian, Inc.),
 the Gaussian 86(TM) system (copyright 1986, Carnegie Mellon
 University), and the Gaussian 82(TM) system (copyright 1983,
 Carnegie Mellon University). Gaussian is a federally registered
 trademark of Gaussian, Inc.
  
 This software contains proprietary and confidential information,
 including trade secrets, belonging to Gaussian, Inc.
  
 This software is provided under written license and may be
 used, copied, transmitted, or stored only in accord with that
 written license.
  
 The following legend is applicable only to US Government
 contracts under FAR:
  
                    RESTRICTED RIGHTS LEGEND
  
 Use, reproduction and disclosure by the US Government is
 subject to restrictions as set forth in subparagraphs (a)
 and (c) of the Commercial Computer Software - Restricted
 Rights clause in FAR 52.227-19.
  
 Gaussian, Inc.
 340 Quinnipiac St., Bldg. 40, Wallingford CT 06492
  
  
 ---------------------------------------------------------------
 Warning -- This program may not be used in any manner that
 competes with the business of Gaussian, Inc. or will provide
 assistance to any competitor of Gaussian, Inc.  The licensee
 of this program is prohibited from giving any competitor of
 Gaussian, Inc. access to this program.  By using this program,
 the user acknowledges that Gaussian, Inc. is engaged in the
 business of creating and licensing software in the field of
 computational chemistry and represents and warrants to the
 licensee that it is not a competitor of Gaussian, Inc. and that
 it will not use this program in any manner prohibited above.
 ---------------------------------------------------------------
  

 Cite this work as:
 Gaussian 16, Revision B.01,
 M. J. Frisch, G. W. Trucks, H. B. Schlegel, G. E. Scuseria, 
 M. A. Robb, J. R. Cheeseman, G. Scalmani, V. Barone, 
 G. A. Petersson, H. Nakatsuji, X. Li, M. Caricato, A. V. Marenich, 
 J. Bloino, B. G. Janesko, R. Gomperts, B. Mennucci, H. P. Hratchian, 
 J. V. Ortiz, A. F. Izmaylov, J. L. Sonnenberg, D. Williams-Young, 
 F. Ding, F. Lipparini, F. Egidi, J. Goings, B. Peng, A. Petrone, 
 T. Henderson, D. Ranasinghe, V. G. Zakrzewski, J. Gao, N. Rega, 
 G. Zheng, W. Liang, M. Hada, M. Ehara, K. Toyota, R. Fukuda, 
 J. Hasegawa, M. Ishida, T. Nakajima, Y. Honda, O. Kitao, H. Nakai, 
 T. Vreven, K. Throssell, J. A. Montgomery, Jr., J. E. Peralta, 
 F. Ogliaro, M. J. Bearpark, J. J. Heyd, E. N. Brothers, K. N. Kudin, 
 V. N. Staroverov, T. A. Keith, R. Kobayashi, J. Normand, 
 K. Raghavachari, A. P. Rendell, J. C. Burant, S. S. Iyengar, 
 J. Tomasi, M. Cossi, J. M. Millam, M. Klene, C. Adamo, R. Cammi, 
 J. W. Ochterski, R. L. Martin, K. Morokuma, O. Farkas, 
 J. B. Foresman, and D. J. Fox, Gaussian, Inc., Wallingford CT, 2016.
 
 ******************************************
 Gaussian 16:  ES64L-G16RevB.01 20-Dec-2017
                 3-Jul-2021 
 ******************************************
 %Chk=water_HOH_scan.chk
 ---------------------------------------
 #MP2/aug-cc-pvdz #Density=current #Scan
 ---------------------------------------
 1/38=1,172=1/1,8;
 2/12=2,17=6,18=5,29=3,40=1/2;
 3/5=16,7=10,11=9,25=1,30=1,71=1/1,2,3;
 4//1;
 5/5=2,38=5/2;
 8/6=4,10=1/1;
 9/15=1,16=-3/6;
 10/5=1/2;
 6/7=2,8=2,9=2,10=2,18=1,22=-1/1;
 1//8(1);
 99/9=1/99;
 2/29=3/2;
 3/5=16,7=10,11=9,25=1,30=1,71=1/1,2,3;
 4/5=5,16=3,69=1/1;
 5/5=2,38=5/2;
 8/6=4,10=1/1;
 9/15=1,16=-3/6;
 10/5=1/2;
 6/7=2,8=2,9=2,10=2,18=1,22=-1/1;
 1//8(-8);
 99/9=1/99;
 ----------
 Water freq
 ----------
 Symbolic Z-matrix:
 Charge =  0 Multiplicity = 1
 O
 H                    1    R
 H                    1    R2       2    A
       Variables:
  R                     0.96593 0         0.     
  R2                    0.96593 0         0.     
  A                    63.8732118         5.     
 
 Scan the potential surface.
 Variable   Value     No. Steps Step-Size
 -------- ----------- --------- ---------
     3      63.873209      18      5.0000
 A total of     19 points will be computed.
 ---------------------------------------------------------------------------------------------------
                            Z-MATRIX (ANGSTROMS AND DEGREES)
   CD    Cent   Atom    N1       Length/X        N2       Alpha/Y        N3        Beta/Z          J
 ---------------------------------------------------------------------------------------------------
      1      1  O 
      2      2  H        1   0.965929(     1)
      3      3  H        1   0.965929(     2)      2   63.873(     3)
 ---------------------------------------------------------------------------------------------------
                         Z-Matrix orientation:                         
 ---------------------------------------------------------------------
 Center     Atomic      Atomic             Coordinates (Angstroms)
 Number     Number       Type             X           Y           Z
 ---------------------------------------------------------------------
      1          8           0        0.000000    0.000000    0.000000
      2          1           0        0.000000    0.000000    0.965929
      3          1           0        0.867232    0.000000    0.425356
 ---------------------------------------------------------------------
                    Distance matrix (angstroms):
                    1          2          3
     1  O    0.000000
     2  H    0.965929   0.000000
     3  H    0.965929   1.021915   0.000000
 Stoichiometry    H2O
 Framework group  C2V[C2(O),SGV(H2)]
 Deg. of freedom     2
 Full point group                 C2V     NOp   4
 Largest Abelian subgroup         C2V     NOp   4
 Largest concise Abelian subgroup C2      NOp   2
                         Standard orientation:                         
 ---------------------------------------------------------------------
 Center     Atomic      Atomic             Coordinates (Angstroms)
 Number     Number       Type             X           Y           Z
 ---------------------------------------------------------------------
      1          8           0       -0.000000    0.000000    0.163944
      2          1           0        0.000000    0.510958   -0.655776
      3          1           0       -0.000000   -0.510958   -0.655776
 ---------------------------------------------------------------------
 Rotational constants (GHZ):         960.3559528         420.1616222         292.2850982
 Standard basis: Aug-CC-pVDZ (5D, 7F)
 There are    20 symmetry adapted cartesian basis functions of A1  symmetry.
 There are     4 symmetry adapted cartesian basis functions of A2  symmetry.
 There are     7 symmetry adapted cartesian basis functions of B1  symmetry.
 There are    12 symmetry adapted cartesian basis functions of B2  symmetry.
 There are    18 symmetry adapted basis functions of A1  symmetry.
 There are     4 symmetry adapted basis functions of A2  symmetry.
 There are     7 symmetry adapted basis functions of B1  symmetry.
 There are    12 symmetry adapted basis functions of B2  symmetry.
    41 basis functions,    65 primitive gaussians,    43 cartesian basis functions
     5 alpha electrons        5 beta electrons
       nuclear repulsion energy         9.2833139202 Hartrees.
 NAtoms=    3 NActive=    3 NUniq=    2 SFac= 2.25D+00 NAtFMM=   60 NAOKFM=F Big=F
 Integral buffers will be    131072 words long.
 Raffenetti 1 integral format.
 Two-electron integral symmetry is turned on.
 One-electron integrals computed using PRISM.
 NBasis=    41 RedAO= T EigKep=  5.92D-04  NBF=    18     4     7    12
 NBsUse=    41 1.00D-06 EigRej= -1.00D+00 NBFU=    18     4     7    12
 ExpMin= 2.97D-02 ExpMax= 1.17D+04 ExpMxC= 4.01D+02 IAcc=3 IRadAn=         5 AccDes= 0.00D+00
 Harris functional with IExCor=  205 and IRadAn=       5 diagonalized for initial guess.
 HarFok:  IExCor=  205 AccDes= 0.00D+00 IRadAn=         5 IDoV= 1 UseB2=F ITyADJ=14
 ICtDFT=  3500011 ScaDFX=  1.000000  1.000000  1.000000  1.000000
 FoFCou: FMM=F IPFlag=           0 FMFlag=      100000 FMFlg1=           0
         NFxFlg=           0 DoJE=T BraDBF=F KetDBF=T FulRan=T
         wScrn=  0.000000 ICntrl=       500 IOpCl=  0 I1Cent=   200000004 NGrid=           0
         NMat0=    1 NMatS0=      1 NMatT0=    0 NMatD0=    1 NMtDS0=    0 NMtDT0=    0
 Petite list used in FoFCou.
 Initial guess orbital symmetries:
       Occupied  (A1) (A1) (A1) (B2) (B1)
       Virtual   (A1) (B2) (A1) (B1) (A1) (B2) (B2) (A1) (B1) (A1)
                 (A2) (A1) (B2) (B2) (B2) (A1) (B1) (A1) (A2) (A1)
                 (B1) (B2) (A1) (A1) (B2) (B1) (A2) (A1) (B2) (B2)
                 (A1) (A1) (B1) (A2) (A1) (B2)
 The electronic state of the initial guess is 1-A1.
 Keep R1 ints in memory in symmetry-blocked form, NReq=1211447.
 Requested convergence on RMS density matrix=1.00D-08 within 128 cycles.
 Requested convergence on MAX density matrix=1.00D-06.
 Requested convergence on             energy=1.00D-06.
 No special actions if energy rises.
 SCF Done:  E(RHF) =  -75.9870436122     A.U. after   10 cycles
            NFock= 10  Conv=0.91D-08     -V/T= 2.0002
 ExpMin= 2.97D-02 ExpMax= 1.17D+04 ExpMxC= 4.01D+02 IAcc=3 IRadAn=         5 AccDes= 0.00D+00
 HarFok:  IExCor=  205 AccDes= 0.00D+00 IRadAn=         5 IDoV=-2 UseB2=F ITyADJ=14
 ICtDFT= 12500011 ScaDFX=  1.000000  1.000000  1.000000  1.000000
 Range of M.O.s used for correlation:     2    41
 NBasis=    41 NAE=     5 NBE=     5 NFC=     1 NFV=     0
 NROrb=     40 NOA=     4 NOB=     4 NVA=    36 NVB=    36

 **** Warning!!: The largest alpha MO coefficient is  0.18634712D+02

 Fully in-core method, ICMem=     7154859.
 JobTyp=1 Pass  1 fully in-core, NPsUse=  1.
 Spin components of T(2) and E(2):
     alpha-alpha T2 =       0.8320269561D-02 E2=     -0.2915272417D-01
     alpha-beta  T2 =       0.4587449643D-01 E2=     -0.1672121376D+00
     beta-beta   T2 =       0.8320269561D-02 E2=     -0.2915272417D-01
 ANorm=    0.1030783700D+01
 E2 =    -0.2255175859D+00 EUMP2 =    -0.76212561198100D+02
          IDoAtm=111
          Differentiating once with respect to electric field.
                with respect to dipole field.
          Differentiating once with respect to nuclear coordinates.
 Keep R1 ints in memory in symmetry-blocked form, NReq=1212062.
          There are     1 degrees of freedom in the 1st order CPHF.  IDoFFX=0 NUNeed=     1.
 LinEq1:  Iter=  0 NonCon=     1 RMS=8.85D-03 Max=6.70D-02 NDo=     1
 AX will form     1 AO Fock derivatives at one time.
 LinEq1:  Iter=  1 NonCon=     1 RMS=2.04D-03 Max=9.07D-03 NDo=     1
 LinEq1:  Iter=  2 NonCon=     1 RMS=7.75D-04 Max=5.89D-03 NDo=     1
 LinEq1:  Iter=  3 NonCon=     1 RMS=1.07D-04 Max=4.70D-04 NDo=     1
 LinEq1:  Iter=  4 NonCon=     1 RMS=1.52D-05 Max=8.52D-05 NDo=     1
 LinEq1:  Iter=  5 NonCon=     1 RMS=1.76D-06 Max=7.44D-06 NDo=     1
 LinEq1:  Iter=  6 NonCon=     1 RMS=2.43D-07 Max=1.40D-06 NDo=     1
 LinEq1:  Iter=  7 NonCon=     1 RMS=3.20D-08 Max=1.44D-07 NDo=     1
 LinEq1:  Iter=  8 NonCon=     1 RMS=2.52D-09 Max=1.20D-08 NDo=     1
 LinEq1:  Iter=  9 NonCon=     1 RMS=2.30D-10 Max=1.16D-09 NDo=     1
 LinEq1:  Iter= 10 NonCon=     0 RMS=1.99D-11 Max=1.32D-10 NDo=     1
 Linear equations converged to 1.000D-10 1.000D-09 after    10 iterations.
 End of Minotr F.D. properties file   721 does not exist.
 End of Minotr F.D. properties file   722 does not exist.
 End of Minotr F.D. properties file   788 does not exist.

 **********************************************************************

            Population analysis using the MP2 Density.

 **********************************************************************

 Orbital symmetries:
       Occupied  (A1) (A1) (A1) (B2) (B1)
       Virtual   (A1) (B2) (A1) (B1) (A1) (B2) (B2) (A1) (B1) (A1)
                 (A2) (B2) (A1) (B2) (B2) (A1) (B1) (A1) (A2) (A1)
                 (B2) (B1) (A1) (A1) (B1) (B2) (A2) (B2) (A1) (B2)
                 (A1) (A1) (B1) (A2) (A1) (B2)
 The electronic state is 1-A1.
 Alpha  occ. eigenvalues --  -20.59230  -1.39269  -0.67053  -0.62008  -0.51927
 Alpha virt. eigenvalues --    0.03040   0.06132   0.16698   0.20167   0.21783
 Alpha virt. eigenvalues --    0.24034   0.28219   0.33637   0.38421   0.40270
 Alpha virt. eigenvalues --    0.40989   0.56699   0.62085   0.64074   0.79705
 Alpha virt. eigenvalues --    0.89678   1.11122   1.11321   1.14616   1.33422
 Alpha virt. eigenvalues --    1.37802   1.43203   1.76366   1.83116   2.01035
 Alpha virt. eigenvalues --    2.04576   2.04994   2.54131   2.61951   2.77412
 Alpha virt. eigenvalues --    3.03207   3.66414   3.67363   3.68776   4.11950
 Alpha virt. eigenvalues --    4.19779
          Condensed to atoms (all electrons):
               1          2          3
     1  O    7.698124   0.269578   0.269578
     2  H    0.269578   0.596071   0.015712
     3  H    0.269578   0.015712   0.596071
 Mulliken charges:
               1
     1  O   -0.237279
     2  H    0.118640
     3  H    0.118640
 Sum of Mulliken charges =  -0.00000
 Mulliken charges with hydrogens summed into heavy atoms:
               1
     1  O   -0.000000
 Electronic spatial extent (au):  <R**2>=             20.1774
 Charge=             -0.0000 electrons
 Dipole moment (field-independent basis, Debye):
    X=             -0.0000    Y=              0.0000    Z=             -2.3316  Tot=              2.3316
 Quadrupole moment (field-independent basis, Debye-Ang):
   XX=             -7.8667   YY=             -6.2563   ZZ=             -5.3443
   XY=              0.0000   XZ=              0.0000   YZ=             -0.0000
 Traceless Quadrupole moment (field-independent basis, Debye-Ang):
   XX=             -1.3776   YY=              0.2328   ZZ=              1.1448
   XY=              0.0000   XZ=              0.0000   YZ=             -0.0000
 Octapole moment (field-independent basis, Debye-Ang**2):
  XXX=              0.0000  YYY=              0.0000  ZZZ=             -1.6702  XYY=              0.0000
  XXY=              0.0000  XXZ=             -0.2625  XZZ=             -0.0000  YZZ=             -0.0000
  YYZ=             -0.8126  XYZ=             -0.0000
 Hexadecapole moment (field-independent basis, Debye-Ang**3):
 XXXX=             -7.6845 YYYY=             -7.3917 ZZZZ=             -8.2036 XXXY=             -0.0000
 XXXZ=             -0.0000 YYYX=             -0.0000 YYYZ=             -0.0000 ZZZX=             -0.0000
 ZZZY=             -0.0000 XXYY=             -2.5723 XXZZ=             -2.8165 YYZZ=             -2.2638
 XXYZ=             -0.0000 YYXZ=             -0.0000 ZZXY=              0.0000
 N-N= 9.283313920206D+00 E-N=-1.987269150394D+02  KE= 7.610236337821D+01
 Symmetry A1   KE= 6.778316662902D+01
 Symmetry A2   KE= 1.742111911535D-02
 Symmetry B1   KE= 4.381485823044D+00
 Symmetry B2   KE= 3.920289807028D+00
 Variable Step   Value    
 -------- ---- -----------
     3       1    1.202064
 ---------------------------------------------------------------------------------------------------
                            Z-MATRIX (ANGSTROMS AND DEGREES)
   CD    Cent   Atom    N1       Length/X        N2       Alpha/Y        N3        Beta/Z          J
 ---------------------------------------------------------------------------------------------------
      1      1  O 
      2      2  H        1   0.965929(     1)
      3      3  H        1   0.965929(     2)      2   68.873(     3)
 ---------------------------------------------------------------------------------------------------
                         Z-Matrix orientation:                         
 ---------------------------------------------------------------------
 Center     Atomic      Atomic             Coordinates (Angstroms)
 Number     Number       Type             X           Y           Z
 ---------------------------------------------------------------------
      1          8           0        0.000000    0.000000    0.000000
      2          1           0        0.000000    0.000000    0.965929
      3          1           0        0.901004    0.000000    0.348153
 ---------------------------------------------------------------------
                    Distance matrix (angstroms):
                    1          2          3
     1  O    0.000000
     2  H    0.965929   0.000000
     3  H    0.965929   1.092454   0.000000
 Stoichiometry    H2O
 Framework group  C2V[C2(O),SGV(H2)]
 Deg. of freedom     2
 Full point group                 C2V     NOp   4
 Largest Abelian subgroup         C2V     NOp   4
 Largest concise Abelian subgroup C2      NOp   2
                         Standard orientation:                         
 ---------------------------------------------------------------------
 Center     Atomic      Atomic             Coordinates (Angstroms)
 Number     Number       Type             X           Y           Z
 ---------------------------------------------------------------------
      1          8           0       -0.000000   -0.000000    0.159330
      2          1           0        0.000000    0.546227   -0.637322
      3          1           0       -0.000000   -0.546227   -0.637322
 ---------------------------------------------------------------------
 Rotational constants (GHZ):         840.3412684         444.8462976         290.8701515
 Standard basis: Aug-CC-pVDZ (5D, 7F)
 There are    20 symmetry adapted cartesian basis functions of A1  symmetry.
 There are     4 symmetry adapted cartesian basis functions of A2  symmetry.
 There are     7 symmetry adapted cartesian basis functions of B1  symmetry.
 There are    12 symmetry adapted cartesian basis functions of B2  symmetry.
 There are    18 symmetry adapted basis functions of A1  symmetry.
 There are     4 symmetry adapted basis functions of A2  symmetry.
 There are     7 symmetry adapted basis functions of B1  symmetry.
 There are    12 symmetry adapted basis functions of B2  symmetry.
    41 basis functions,    65 primitive gaussians,    43 cartesian basis functions
     5 alpha electrons        5 beta electrons
       nuclear repulsion energy         9.2498781987 Hartrees.
 NAtoms=    3 NActive=    3 NUniq=    2 SFac= 2.25D+00 NAtFMM=   60 NAOKFM=F Big=F
 Integral buffers will be    131072 words long.
 Raffenetti 1 integral format.
 Two-electron integral symmetry is turned on.
 One-electron integrals computed using PRISM.
 NBasis=    41 RedAO= T EigKep=  8.07D-04  NBF=    18     4     7    12
 NBsUse=    41 1.00D-06 EigRej= -1.00D+00 NBFU=    18     4     7    12
 Initial guess from the checkpoint file:  "water_HOH_scan.chk"
 B after Tr=    -0.000000    0.000000    0.000000
         Rot=    1.000000   -0.000000   -0.000000    0.000000 Ang=   0.00 deg.
 Initial guess orbital symmetries:
       Occupied  (A1) (A1) (A1) (B2) (B1)
       Virtual   (A1) (B2) (A1) (B1) (A1) (B2) (B2) (A1) (B1) (A1)
                 (A2) (B2) (A1) (B2) (B2) (A1) (B1) (A1) (A2) (A1)
                 (B2) (B1) (A1) (A1) (B1) (B2) (A2) (B2) (A1) (B2)
                 (A1) (A1) (B1) (A2) (A1) (B2)
 ExpMin= 2.97D-02 ExpMax= 1.17D+04 ExpMxC= 4.01D+02 IAcc=3 IRadAn=         5 AccDes= 0.00D+00
 Harris functional with IExCor=  205 and IRadAn=       5 diagonalized for initial guess.
 HarFok:  IExCor=  205 AccDes= 0.00D+00 IRadAn=         5 IDoV= 1 UseB2=F ITyADJ=14
 ICtDFT=  3500011 ScaDFX=  1.000000  1.000000  1.000000  1.000000
 FoFCou: FMM=F IPFlag=           0 FMFlag=      100000 FMFlg1=           0
         NFxFlg=           0 DoJE=T BraDBF=F KetDBF=T FulRan=T
         wScrn=  0.000000 ICntrl=       500 IOpCl=  0 I1Cent=   200000004 NGrid=           0
         NMat0=    1 NMatS0=      1 NMatT0=    0 NMatD0=    1 NMtDS0=    0 NMtDT0=    0
 Petite list used in FoFCou.
 Keep R1 ints in memory in symmetry-blocked form, NReq=1211447.
 Requested convergence on RMS density matrix=1.00D-08 within 128 cycles.
 Requested convergence on MAX density matrix=1.00D-06.
 Requested convergence on             energy=1.00D-06.
 No special actions if energy rises.
 SCF Done:  E(RHF) =  -76.0000844281     A.U. after    9 cycles
            NFock=  9  Conv=0.53D-08     -V/T= 2.0006
 ExpMin= 2.97D-02 ExpMax= 1.17D+04 ExpMxC= 4.01D+02 IAcc=3 IRadAn=         5 AccDes= 0.00D+00
 HarFok:  IExCor=  205 AccDes= 0.00D+00 IRadAn=         5 IDoV=-2 UseB2=F ITyADJ=14
 ICtDFT= 12500011 ScaDFX=  1.000000  1.000000  1.000000  1.000000
 Range of M.O.s used for correlation:     2    41
 NBasis=    41 NAE=     5 NBE=     5 NFC=     1 NFV=     0
 NROrb=     40 NOA=     4 NOB=     4 NVA=    36 NVB=    36

 **** Warning!!: The largest alpha MO coefficient is  0.17378430D+02

 Fully in-core method, ICMem=     7154859.
 JobTyp=1 Pass  1 fully in-core, NPsUse=  1.
 Spin components of T(2) and E(2):
     alpha-alpha T2 =       0.8241636332D-02 E2=     -0.2898677387D-01
     alpha-beta  T2 =       0.4570834596D-01 E2=     -0.1669757174D+00
     beta-beta   T2 =       0.8241636332D-02 E2=     -0.2898677387D-01
 ANorm=    0.1030626809D+01
 E2 =    -0.2249492652D+00 EUMP2 =    -0.76225033693274D+02
          IDoAtm=111
          Differentiating once with respect to electric field.
                with respect to dipole field.
          Differentiating once with respect to nuclear coordinates.
 Keep R1 ints in memory in symmetry-blocked form, NReq=1212062.
          There are     1 degrees of freedom in the 1st order CPHF.  IDoFFX=0 NUNeed=     1.
 LinEq1:  Iter=  0 NonCon=     1 RMS=8.73D-03 Max=6.71D-02 NDo=     1
 AX will form     1 AO Fock derivatives at one time.
 LinEq1:  Iter=  1 NonCon=     1 RMS=1.98D-03 Max=1.02D-02 NDo=     1
 LinEq1:  Iter=  2 NonCon=     1 RMS=7.55D-04 Max=5.80D-03 NDo=     1
 LinEq1:  Iter=  3 NonCon=     1 RMS=1.00D-04 Max=4.55D-04 NDo=     1
 LinEq1:  Iter=  4 NonCon=     1 RMS=1.35D-05 Max=7.40D-05 NDo=     1
 LinEq1:  Iter=  5 NonCon=     1 RMS=1.49D-06 Max=6.63D-06 NDo=     1
 LinEq1:  Iter=  6 NonCon=     1 RMS=1.24D-07 Max=6.72D-07 NDo=     1
 LinEq1:  Iter=  7 NonCon=     1 RMS=1.67D-08 Max=8.12D-08 NDo=     1
 LinEq1:  Iter=  8 NonCon=     1 RMS=2.04D-09 Max=1.18D-08 NDo=     1
 LinEq1:  Iter=  9 NonCon=     1 RMS=2.01D-10 Max=1.06D-09 NDo=     1
 LinEq1:  Iter= 10 NonCon=     0 RMS=1.77D-11 Max=1.17D-10 NDo=     1
 Linear equations converged to 1.000D-10 1.000D-09 after    10 iterations.
 End of Minotr F.D. properties file   721 does not exist.
 End of Minotr F.D. properties file   722 does not exist.
 End of Minotr F.D. properties file   788 does not exist.

 **********************************************************************

            Population analysis using the MP2 Density.

 **********************************************************************

 Orbital symmetries:
       Occupied  (A1) (A1) (A1) (B2) (B1)
       Virtual   (A1) (B2) (A1) (B1) (A1) (B2) (B2) (A1) (B1) (A1)
                 (A2) (B2) (A1) (B2) (B2) (A1) (A1) (B1) (A2) (A1)
                 (B2) (B1) (A1) (A1) (A2) (B1) (B2) (B2) (A1) (B2)
                 (A1) (A1) (B1) (A2) (A1) (B2)
 The electronic state is 1-A1.
 Alpha  occ. eigenvalues --  -20.59094  -1.38577  -0.65867  -0.63260  -0.51802
 Alpha virt. eigenvalues --    0.03111   0.06094   0.16803   0.20119   0.21941
 Alpha virt. eigenvalues --    0.23991   0.28139   0.34283   0.38885   0.39380
 Alpha virt. eigenvalues --    0.40679   0.56710   0.62547   0.64996   0.77542
 Alpha virt. eigenvalues --    0.91945   1.11308   1.11313   1.14627   1.32869
 Alpha virt. eigenvalues --    1.39013   1.43717   1.71279   1.87800   2.02879
 Alpha virt. eigenvalues --    2.04830   2.05413   2.56195   2.63653   2.69763
 Alpha virt. eigenvalues --    3.04662   3.66720   3.67633   3.68893   4.09270
 Alpha virt. eigenvalues --    4.21653
          Condensed to atoms (all electrons):
               1          2          3
     1  O    7.680812   0.281255   0.281255
     2  H    0.281255   0.596016   0.001067
     3  H    0.281255   0.001067   0.596016
 Mulliken charges:
               1
     1  O   -0.243322
     2  H    0.121661
     3  H    0.121661
 Sum of Mulliken charges =   0.00000
 Mulliken charges with hydrogens summed into heavy atoms:
               1
     1  O    0.000000
 Electronic spatial extent (au):  <R**2>=             20.1889
 Charge=              0.0000 electrons
 Dipole moment (field-independent basis, Debye):
    X=             -0.0000    Y=              0.0000    Z=             -2.2864  Tot=              2.2864
 Quadrupole moment (field-independent basis, Debye-Ang):
   XX=             -7.8749   YY=             -6.0511   ZZ=             -5.4851
   XY=              0.0000   XZ=              0.0000   YZ=              0.0000
 Traceless Quadrupole moment (field-independent basis, Debye-Ang):
   XX=             -1.4046   YY=              0.4193   ZZ=              0.9853
   XY=              0.0000   XZ=              0.0000   YZ=              0.0000
 Octapole moment (field-independent basis, Debye-Ang**2):
  XXX=              0.0000  YYY=              0.0000  ZZZ=             -1.5898  XYY=              0.0000
  XXY=             -0.0000  XXZ=             -0.2587  XZZ=             -0.0000  YZZ=              0.0000
  YYZ=             -0.8912  XYZ=             -0.0000
 Hexadecapole moment (field-independent basis, Debye-Ang**3):
 XXXX=             -7.7134 YYYY=             -7.3656 ZZZZ=             -8.2335 XXXY=             -0.0000
 XXXZ=             -0.0000 YYYX=             -0.0000 YYYZ=              0.0000 ZZZX=             -0.0000
 ZZZY=              0.0000 XXYY=             -2.5922 XXZZ=             -2.8089 YYZZ=             -2.2181
 XXYZ=              0.0000 YYXZ=             -0.0000 ZZXY=              0.0000
 N-N= 9.249878198737D+00 E-N=-1.986914320575D+02  KE= 7.608861552286D+01
 Symmetry A1   KE= 6.781666759808D+01
 Symmetry A2   KE= 1.747609966524D-02
 Symmetry B1   KE= 4.379616304643D+00
 Symmetry B2   KE= 3.874855520478D+00
 Variable Step   Value    
 -------- ---- -----------
     3       2    1.289331
 ---------------------------------------------------------------------------------------------------
                            Z-MATRIX (ANGSTROMS AND DEGREES)
   CD    Cent   Atom    N1       Length/X        N2       Alpha/Y        N3        Beta/Z          J
 ---------------------------------------------------------------------------------------------------
      1      1  O 
      2      2  H        1   0.965929(     1)
      3      3  H        1   0.965929(     2)      2   73.873(     3)
 ---------------------------------------------------------------------------------------------------
                         Z-Matrix orientation:                         
 ---------------------------------------------------------------------
 Center     Atomic      Atomic             Coordinates (Angstroms)
 Number     Number       Type             X           Y           Z
 ---------------------------------------------------------------------
      1          8           0        0.000000    0.000000    0.000000
      2          1           0        0.000000    0.000000    0.965929
      3          1           0        0.927919    0.000000    0.268300
 ---------------------------------------------------------------------
                    Distance matrix (angstroms):
                    1          2          3
     1  O    0.000000
     2  H    0.965929   0.000000
     3  H    0.965929   1.160913   0.000000
 Stoichiometry    H2O
 Framework group  C2V[C2(O),SGV(H2)]
 Deg. of freedom     2
 Full point group                 C2V     NOp   4
 Largest Abelian subgroup         C2V     NOp   4
 Largest concise Abelian subgroup C2      NOp   2
                         Standard orientation:                         
 ---------------------------------------------------------------------
 Center     Atomic      Atomic             Coordinates (Angstroms)
 Number     Number       Type             X           Y           Z
 ---------------------------------------------------------------------
      1          8           0        0.000000    0.000000    0.154414
      2          1           0        0.000000    0.580457   -0.617654
      3          1           0       -0.000000   -0.580457   -0.617654
 ---------------------------------------------------------------------
 Rotational constants (GHZ):         744.1534945         473.6270915         289.4209838
 Standard basis: Aug-CC-pVDZ (5D, 7F)
 There are    20 symmetry adapted cartesian basis functions of A1  symmetry.
 There are     4 symmetry adapted cartesian basis functions of A2  symmetry.
 There are     7 symmetry adapted cartesian basis functions of B1  symmetry.
 There are    12 symmetry adapted cartesian basis functions of B2  symmetry.
 There are    18 symmetry adapted basis functions of A1  symmetry.
 There are     4 symmetry adapted basis functions of A2  symmetry.
 There are     7 symmetry adapted basis functions of B1  symmetry.
 There are    12 symmetry adapted basis functions of B2  symmetry.
    41 basis functions,    65 primitive gaussians,    43 cartesian basis functions
     5 alpha electrons        5 beta electrons
       nuclear repulsion energy         9.2213134826 Hartrees.
 NAtoms=    3 NActive=    3 NUniq=    2 SFac= 2.25D+00 NAtFMM=   60 NAOKFM=F Big=F
 Integral buffers will be    131072 words long.
 Raffenetti 1 integral format.
 Two-electron integral symmetry is turned on.
 One-electron integrals computed using PRISM.
 NBasis=    41 RedAO= T EigKep=  1.06D-03  NBF=    18     4     7    12
 NBsUse=    41 1.00D-06 EigRej= -1.00D+00 NBFU=    18     4     7    12
 Initial guess from the checkpoint file:  "water_HOH_scan.chk"
 B after Tr=    -0.000000   -0.000000   -0.000000
         Rot=    1.000000   -0.000000   -0.000000   -0.000000 Ang=   0.00 deg.
 Initial guess orbital symmetries:
       Occupied  (A1) (A1) (A1) (B2) (B1)
       Virtual   (A1) (B2) (A1) (B1) (A1) (B2) (B2) (A1) (B1) (A1)
                 (A2) (B2) (A1) (B2) (B2) (A1) (A1) (B1) (A2) (A1)
                 (B2) (B1) (A1) (A1) (A2) (B1) (B2) (B2) (A1) (B2)
                 (A1) (A1) (B1) (A2) (A1) (B2)
 ExpMin= 2.97D-02 ExpMax= 1.17D+04 ExpMxC= 4.01D+02 IAcc=3 IRadAn=         5 AccDes= 0.00D+00
 Harris functional with IExCor=  205 and IRadAn=       5 diagonalized for initial guess.
 HarFok:  IExCor=  205 AccDes= 0.00D+00 IRadAn=         5 IDoV= 1 UseB2=F ITyADJ=14
 ICtDFT=  3500011 ScaDFX=  1.000000  1.000000  1.000000  1.000000
 FoFCou: FMM=F IPFlag=           0 FMFlag=      100000 FMFlg1=           0
         NFxFlg=           0 DoJE=T BraDBF=F KetDBF=T FulRan=T
         wScrn=  0.000000 ICntrl=       500 IOpCl=  0 I1Cent=   200000004 NGrid=           0
         NMat0=    1 NMatS0=      1 NMatT0=    0 NMatD0=    1 NMtDS0=    0 NMtDT0=    0
 Petite list used in FoFCou.
 Keep R1 ints in memory in symmetry-blocked form, NReq=1211447.
 Requested convergence on RMS density matrix=1.00D-08 within 128 cycles.
 Requested convergence on MAX density matrix=1.00D-06.
 Requested convergence on             energy=1.00D-06.
 No special actions if energy rises.
 SCF Done:  E(RHF) =  -76.0110971722     A.U. after    9 cycles
            NFock=  9  Conv=0.53D-08     -V/T= 2.0009
 ExpMin= 2.97D-02 ExpMax= 1.17D+04 ExpMxC= 4.01D+02 IAcc=3 IRadAn=         5 AccDes= 0.00D+00
 HarFok:  IExCor=  205 AccDes= 0.00D+00 IRadAn=         5 IDoV=-2 UseB2=F ITyADJ=14
 ICtDFT= 12500011 ScaDFX=  1.000000  1.000000  1.000000  1.000000
 Range of M.O.s used for correlation:     2    41
 NBasis=    41 NAE=     5 NBE=     5 NFC=     1 NFV=     0
 NROrb=     40 NOA=     4 NOB=     4 NVA=    36 NVB=    36

 **** Warning!!: The largest alpha MO coefficient is  0.15558425D+02

 Fully in-core method, ICMem=     7154859.
 JobTyp=1 Pass  1 fully in-core, NPsUse=  1.
 Spin components of T(2) and E(2):
     alpha-alpha T2 =       0.8155823675D-02 E2=     -0.2879938027D-01
     alpha-beta  T2 =       0.4547651941D-01 E2=     -0.1665960710D+00
     beta-beta   T2 =       0.8155823675D-02 E2=     -0.2879938027D-01
 ANorm=    0.1030431059D+01
 E2 =    -0.2241948316D+00 EUMP2 =    -0.76235292003796D+02
          IDoAtm=111
          Differentiating once with respect to electric field.
                with respect to dipole field.
          Differentiating once with respect to nuclear coordinates.
 Keep R1 ints in memory in symmetry-blocked form, NReq=1212062.
          There are     1 degrees of freedom in the 1st order CPHF.  IDoFFX=0 NUNeed=     1.
 LinEq1:  Iter=  0 NonCon=     1 RMS=8.63D-03 Max=6.70D-02 NDo=     1
 AX will form     1 AO Fock derivatives at one time.
 LinEq1:  Iter=  1 NonCon=     1 RMS=1.94D-03 Max=1.10D-02 NDo=     1
 LinEq1:  Iter=  2 NonCon=     1 RMS=7.41D-04 Max=5.70D-03 NDo=     1
 LinEq1:  Iter=  3 NonCon=     1 RMS=9.38D-05 Max=4.54D-04 NDo=     1
 LinEq1:  Iter=  4 NonCon=     1 RMS=1.19D-05 Max=6.19D-05 NDo=     1
 LinEq1:  Iter=  5 NonCon=     1 RMS=1.37D-06 Max=5.95D-06 NDo=     1
 LinEq1:  Iter=  6 NonCon=     1 RMS=1.10D-07 Max=5.02D-07 NDo=     1
 LinEq1:  Iter=  7 NonCon=     1 RMS=1.00D-08 Max=4.67D-08 NDo=     1
 LinEq1:  Iter=  8 NonCon=     1 RMS=7.29D-10 Max=3.45D-09 NDo=     1
 LinEq1:  Iter=  9 NonCon=     0 RMS=5.28D-11 Max=3.56D-10 NDo=     1
 Linear equations converged to 1.000D-10 1.000D-09 after     9 iterations.
 End of Minotr F.D. properties file   721 does not exist.
 End of Minotr F.D. properties file   722 does not exist.
 End of Minotr F.D. properties file   788 does not exist.

 **********************************************************************

            Population analysis using the MP2 Density.

 **********************************************************************

 Orbital symmetries:
       Occupied  (A1) (A1) (A1) (B2) (B1)
       Virtual   (A1) (B2) (A1) (B1) (A1) (B2) (B2) (A1) (A1) (B1)
                 (A2) (B2) (A1) (B2) (B2) (A1) (A1) (B1) (A2) (A1)
                 (B2) (B1) (A1) (A1) (A2) (B2) (B1) (B2) (A1) (B2)
                 (A1) (A1) (B1) (A2) (A1) (B2)
 The electronic state is 1-A1.
 Alpha  occ. eigenvalues --  -20.58959  -1.37959  -0.64736  -0.64514  -0.51679
 Alpha virt. eigenvalues --    0.03181   0.06054   0.16908   0.20067   0.22068
 Alpha virt. eigenvalues --    0.23922   0.28071   0.34969   0.38478   0.39385
 Alpha virt. eigenvalues --    0.40368   0.56489   0.62974   0.65619   0.76549
 Alpha virt. eigenvalues --    0.93790   1.11396   1.11434   1.14643   1.31753
 Alpha virt. eigenvalues --    1.40203   1.44265   1.67186   1.93413   2.01165
 Alpha virt. eigenvalues --    2.05706   2.08138   2.57645   2.64670   2.64743
 Alpha virt. eigenvalues --    3.05824   3.67151   3.67832   3.69026   4.06382
 Alpha virt. eigenvalues --    4.23771
          Condensed to atoms (all electrons):
               1          2          3
     1  O    7.663901   0.289438   0.289438
     2  H    0.289438   0.600459  -0.011286
     3  H    0.289438  -0.011286   0.600459
 Mulliken charges:
               1
     1  O   -0.242777
     2  H    0.121389
     3  H    0.121389
 Sum of Mulliken charges =  -0.00000
 Mulliken charges with hydrogens summed into heavy atoms:
               1
     1  O   -0.000000
 Electronic spatial extent (au):  <R**2>=             20.2003
 Charge=             -0.0000 electrons
 Dipole moment (field-independent basis, Debye):
    X=             -0.0000    Y=             -0.0000    Z=             -2.2381  Tot=              2.2381
 Quadrupole moment (field-independent basis, Debye-Ang):
   XX=             -7.8826   YY=             -5.8409   ZZ=             -5.6289
   XY=              0.0000   XZ=              0.0000   YZ=              0.0000
 Traceless Quadrupole moment (field-independent basis, Debye-Ang):
   XX=             -1.4318   YY=              0.6099   ZZ=              0.8219
   XY=              0.0000   XZ=              0.0000   YZ=              0.0000
 Octapole moment (field-independent basis, Debye-Ang**2):
  XXX=              0.0000  YYY=              0.0000  ZZZ=             -1.5068  XYY=              0.0000
  XXY=              0.0000  XXZ=             -0.2558  XZZ=              0.0000  YZZ=             -0.0000
  YYZ=             -0.9706  XYZ=             -0.0000
 Hexadecapole moment (field-independent basis, Debye-Ang**3):
 XXXX=             -7.7424 YYYY=             -7.3283 ZZZZ=             -8.2523 XXXY=             -0.0000
 XXXZ=             -0.0000 YYYX=             -0.0000 YYYZ=             -0.0000 ZZZX=             -0.0000
 ZZZY=              0.0000 XXYY=             -2.6145 XXZZ=             -2.7999 YYZZ=             -2.1805
 XXYZ=             -0.0000 YYXZ=              0.0000 ZZXY=              0.0000
 N-N= 9.221313482596D+00 E-N=-1.986598697145D+02  KE= 7.607606730536D+01
 Symmetry A1   KE= 6.784719242806D+01
 Symmetry A2   KE= 1.752882036157D-02
 Symmetry B1   KE= 4.378014562106D+00
 Symmetry B2   KE= 3.833331494826D+00
 Variable Step   Value    
 -------- ---- -----------
     3       3    1.376597
 ---------------------------------------------------------------------------------------------------
                            Z-MATRIX (ANGSTROMS AND DEGREES)
   CD    Cent   Atom    N1       Length/X        N2       Alpha/Y        N3        Beta/Z          J
 ---------------------------------------------------------------------------------------------------
      1      1  O 
      2      2  H        1   0.965929(     1)
      3      3  H        1   0.965929(     2)      2   78.873(     3)
 ---------------------------------------------------------------------------------------------------
                         Z-Matrix orientation:                         
 ---------------------------------------------------------------------
 Center     Atomic      Atomic             Coordinates (Angstroms)
 Number     Number       Type             X           Y           Z
 ---------------------------------------------------------------------
      1          8           0        0.000000    0.000000    0.000000
      2          1           0        0.000000    0.000000    0.965929
      3          1           0        0.947772    0.000000    0.186406
 ---------------------------------------------------------------------
                    Distance matrix (angstroms):
                    1          2          3
     1  O    0.000000
     2  H    0.965929   0.000000
     3  H    0.965929   1.227163   0.000000
 Stoichiometry    H2O
 Framework group  C2V[C2(O),SGV(H2)]
 Deg. of freedom     2
 Full point group                 C2V     NOp   4
 Largest Abelian subgroup         C2V     NOp   4
 Largest concise Abelian subgroup C2      NOp   2
                         Standard orientation:                         
 ---------------------------------------------------------------------
 Center     Atomic      Atomic             Coordinates (Angstroms)
 Number     Number       Type             X           Y           Z
 ---------------------------------------------------------------------
      1          8           0        0.000000    0.000000    0.149203
      2          1           0       -0.000000    0.613581   -0.596811
      3          1           0       -0.000000   -0.613581   -0.596811
 ---------------------------------------------------------------------
 Rotational constants (GHZ):         665.9748982         507.2869516         287.9496815
 Standard basis: Aug-CC-pVDZ (5D, 7F)
 There are    20 symmetry adapted cartesian basis functions of A1  symmetry.
 There are     4 symmetry adapted cartesian basis functions of A2  symmetry.
 There are     7 symmetry adapted cartesian basis functions of B1  symmetry.
 There are    12 symmetry adapted cartesian basis functions of B2  symmetry.
 There are    18 symmetry adapted basis functions of A1  symmetry.
 There are     4 symmetry adapted basis functions of A2  symmetry.
 There are     7 symmetry adapted basis functions of B1  symmetry.
 There are    12 symmetry adapted basis functions of B2  symmetry.
    41 basis functions,    65 primitive gaussians,    43 cartesian basis functions
     5 alpha electrons        5 beta electrons
       nuclear repulsion energy         9.1967052342 Hartrees.
 NAtoms=    3 NActive=    3 NUniq=    2 SFac= 2.25D+00 NAtFMM=   60 NAOKFM=F Big=F
 Integral buffers will be    131072 words long.
 Raffenetti 1 integral format.
 Two-electron integral symmetry is turned on.
 One-electron integrals computed using PRISM.
 NBasis=    41 RedAO= T EigKep=  1.35D-03  NBF=    18     4     7    12
 NBsUse=    41 1.00D-06 EigRej= -1.00D+00 NBFU=    18     4     7    12
 Initial guess from the checkpoint file:  "water_HOH_scan.chk"
 B after Tr=    -0.000000   -0.000000   -0.000000
         Rot=    1.000000    0.000000   -0.000000   -0.000000 Ang=   0.00 deg.
 Initial guess orbital symmetries:
       Occupied  (A1) (A1) (A1) (B2) (B1)
       Virtual   (A1) (B2) (A1) (B1) (A1) (B2) (B2) (A1) (A1) (B1)
                 (A2) (B2) (A1) (B2) (B2) (A1) (A1) (B1) (A2) (A1)
                 (B2) (B1) (A1) (A1) (A2) (B2) (B1) (B2) (A1) (B2)
                 (A1) (A1) (B1) (A2) (A1) (B2)
 ExpMin= 2.97D-02 ExpMax= 1.17D+04 ExpMxC= 4.01D+02 IAcc=3 IRadAn=         5 AccDes= 0.00D+00
 Harris functional with IExCor=  205 and IRadAn=       5 diagonalized for initial guess.
 HarFok:  IExCor=  205 AccDes= 0.00D+00 IRadAn=         5 IDoV= 1 UseB2=F ITyADJ=14
 ICtDFT=  3500011 ScaDFX=  1.000000  1.000000  1.000000  1.000000
 FoFCou: FMM=F IPFlag=           0 FMFlag=      100000 FMFlg1=           0
         NFxFlg=           0 DoJE=T BraDBF=F KetDBF=T FulRan=T
         wScrn=  0.000000 ICntrl=       500 IOpCl=  0 I1Cent=   200000004 NGrid=           0
         NMat0=    1 NMatS0=      1 NMatT0=    0 NMatD0=    1 NMtDS0=    0 NMtDT0=    0
 Petite list used in FoFCou.
 Keep R1 ints in memory in symmetry-blocked form, NReq=1211433.
 Requested convergence on RMS density matrix=1.00D-08 within 128 cycles.
 Requested convergence on MAX density matrix=1.00D-06.
 Requested convergence on             energy=1.00D-06.
 No special actions if energy rises.
 SCF Done:  E(RHF) =  -76.0202330783     A.U. after    9 cycles
            NFock=  9  Conv=0.56D-08     -V/T= 2.0011
 ExpMin= 2.97D-02 ExpMax= 1.17D+04 ExpMxC= 4.01D+02 IAcc=3 IRadAn=         5 AccDes= 0.00D+00
 HarFok:  IExCor=  205 AccDes= 0.00D+00 IRadAn=         5 IDoV=-2 UseB2=F ITyADJ=14
 ICtDFT= 12500011 ScaDFX=  1.000000  1.000000  1.000000  1.000000
 Range of M.O.s used for correlation:     2    41
 NBasis=    41 NAE=     5 NBE=     5 NFC=     1 NFV=     0
 NROrb=     40 NOA=     4 NOB=     4 NVA=    36 NVB=    36

 **** Warning!!: The largest alpha MO coefficient is  0.13677745D+02

 Fully in-core method, ICMem=     7154859.
 JobTyp=1 Pass  1 fully in-core, NPsUse=  1.
 Spin components of T(2) and E(2):
     alpha-alpha T2 =       0.8070876072D-02 E2=     -0.2861073582D-01
     alpha-beta  T2 =       0.4521184809D-01 E2=     -0.1661391676D+00
     beta-beta   T2 =       0.8070876072D-02 E2=     -0.2861073582D-01
 ANorm=    0.1030220171D+01
 E2 =    -0.2233606392D+00 EUMP2 =    -0.76243593717474D+02
          IDoAtm=111
          Differentiating once with respect to electric field.
                with respect to dipole field.
          Differentiating once with respect to nuclear coordinates.
 Keep R1 ints in memory in symmetry-blocked form, NReq=1212062.
          There are     1 degrees of freedom in the 1st order CPHF.  IDoFFX=0 NUNeed=     1.
 LinEq1:  Iter=  0 NonCon=     1 RMS=8.55D-03 Max=6.70D-02 NDo=     1
 AX will form     1 AO Fock derivatives at one time.
 LinEq1:  Iter=  1 NonCon=     1 RMS=1.90D-03 Max=1.14D-02 NDo=     1
 LinEq1:  Iter=  2 NonCon=     1 RMS=7.29D-04 Max=5.60D-03 NDo=     1
 LinEq1:  Iter=  3 NonCon=     1 RMS=8.79D-05 Max=4.51D-04 NDo=     1
 LinEq1:  Iter=  4 NonCon=     1 RMS=1.04D-05 Max=5.03D-05 NDo=     1
 LinEq1:  Iter=  5 NonCon=     1 RMS=1.27D-06 Max=5.33D-06 NDo=     1
 LinEq1:  Iter=  6 NonCon=     1 RMS=1.14D-07 Max=5.40D-07 NDo=     1
 LinEq1:  Iter=  7 NonCon=     1 RMS=1.23D-08 Max=5.84D-08 NDo=     1
 LinEq1:  Iter=  8 NonCon=     1 RMS=1.52D-09 Max=1.01D-08 NDo=     1
 LinEq1:  Iter=  9 NonCon=     1 RMS=1.86D-10 Max=9.96D-10 NDo=     1
 LinEq1:  Iter= 10 NonCon=     0 RMS=1.68D-11 Max=1.08D-10 NDo=     1
 Linear equations converged to 1.000D-10 1.000D-09 after    10 iterations.
 End of Minotr F.D. properties file   721 does not exist.
 End of Minotr F.D. properties file   722 does not exist.
 End of Minotr F.D. properties file   788 does not exist.

 **********************************************************************

            Population analysis using the MP2 Density.

 **********************************************************************

 Orbital symmetries:
       Occupied  (A1) (A1) (B2) (A1) (B1)
       Virtual   (A1) (B2) (A1) (B1) (A1) (B2) (B2) (A1) (A1) (B1)
                 (A2) (B2) (A1) (B2) (B2) (A1) (B1) (A1) (A2) (A1)
                 (B2) (B1) (A1) (A2) (A1) (B2) (B1) (B2) (B2) (A1)
                 (A1) (A1) (B1) (A2) (A1) (B2)
 The electronic state is 1-A1.
 Alpha  occ. eigenvalues --  -20.58817  -1.37404  -0.65753  -0.63645  -0.51556
 Alpha virt. eigenvalues --    0.03249   0.06012   0.17009   0.20011   0.22166
 Alpha virt. eigenvalues --    0.23835   0.28047   0.35664   0.37605   0.39921
 Alpha virt. eigenvalues --    0.40057   0.56140   0.63361   0.65932   0.76383
 Alpha virt. eigenvalues --    0.95110   1.11475   1.11616   1.14664   1.30245
 Alpha virt. eigenvalues --    1.41352   1.44846   1.64152   1.99880   1.99886
 Alpha virt. eigenvalues --    2.05535   2.10688   2.56571   2.63512   2.65042
 Alpha virt. eigenvalues --    3.06558   3.67702   3.67955   3.69174   4.03579
 Alpha virt. eigenvalues --    4.25890
          Condensed to atoms (all electrons):
               1          2          3
     1  O    7.647224   0.295551   0.295551
     2  H    0.295551   0.606625  -0.021340
     3  H    0.295551  -0.021340   0.606625
 Mulliken charges:
               1
     1  O   -0.238327
     2  H    0.119163
     3  H    0.119163
 Sum of Mulliken charges =  -0.00000
 Mulliken charges with hydrogens summed into heavy atoms:
               1
     1  O   -0.000000
 Electronic spatial extent (au):  <R**2>=             20.2125
 Charge=             -0.0000 electrons
 Dipole moment (field-independent basis, Debye):
    X=             -0.0000    Y=             -0.0000    Z=             -2.1869  Tot=              2.1869
 Quadrupole moment (field-independent basis, Debye-Ang):
   XX=             -7.8902   YY=             -5.6272   ZZ=             -5.7753
   XY=              0.0000   XZ=              0.0000   YZ=              0.0000
 Traceless Quadrupole moment (field-independent basis, Debye-Ang):
   XX=             -1.4593   YY=              0.8037   ZZ=              0.6556
   XY=              0.0000   XZ=              0.0000   YZ=              0.0000
 Octapole moment (field-independent basis, Debye-Ang**2):
  XXX=              0.0000  YYY=             -0.0000  ZZZ=             -1.4219  XYY=              0.0000
  XXY=             -0.0000  XXZ=             -0.2530  XZZ=              0.0000  YZZ=             -0.0000
  YYZ=             -1.0478  XYZ=             -0.0000
 Hexadecapole moment (field-independent basis, Debye-Ang**3):
 XXXX=             -7.7722 YYYY=             -7.2783 ZZZZ=             -8.2622 XXXY=             -0.0000
 XXXZ=             -0.0000 YYYX=             -0.0000 YYYZ=              0.0000 ZZZX=             -0.0000
 ZZZY=              0.0000 XXYY=             -2.6391 XXZZ=             -2.7902 YYZZ=             -2.1531
 XXYZ=             -0.0000 YYXZ=              0.0000 ZZXY=              0.0000
 N-N= 9.196705234227D+00 E-N=-1.986312266492D+02  KE= 7.606434498284D+01
 Symmetry A1   KE= 6.787464111195D+01
 Symmetry A2   KE= 1.758137478254D-02
 Symmetry B1   KE= 4.376449501227D+00
 Symmetry B2   KE= 3.795672994878D+00
 Variable Step   Value    
 -------- ---- -----------
     3       4    1.463864
 ---------------------------------------------------------------------------------------------------
                            Z-MATRIX (ANGSTROMS AND DEGREES)
   CD    Cent   Atom    N1       Length/X        N2       Alpha/Y        N3        Beta/Z          J
 ---------------------------------------------------------------------------------------------------
      1      1  O 
      2      2  H        1   0.965929(     1)
      3      3  H        1   0.965929(     2)      2   83.873(     3)
 ---------------------------------------------------------------------------------------------------
                         Z-Matrix orientation:                         
 ---------------------------------------------------------------------
 Center     Atomic      Atomic             Coordinates (Angstroms)
 Number     Number       Type             X           Y           Z
 ---------------------------------------------------------------------
      1          8           0        0.000000    0.000000    0.000000
      2          1           0        0.000000    0.000000    0.965929
      3          1           0        0.960412    0.000000    0.103093
 ---------------------------------------------------------------------
                    Distance matrix (angstroms):
                    1          2          3
     1  O    0.000000
     2  H    0.965929   0.000000
     3  H    0.965929   1.291076   0.000000
 Stoichiometry    H2O
 Framework group  C2V[C2(O),SGV(H2)]
 Deg. of freedom     2
 Full point group                 C2V     NOp   4
 Largest Abelian subgroup         C2V     NOp   4
 Largest concise Abelian subgroup C2      NOp   2
                         Standard orientation:                         
 ---------------------------------------------------------------------
 Center     Atomic      Atomic             Coordinates (Angstroms)
 Number     Number       Type             X           Y           Z
 ---------------------------------------------------------------------
      1          8           0       -0.000000    0.000000    0.143708
      2          1           0        0.000000    0.645538   -0.574832
      3          1           0       -0.000000   -0.645538   -0.574832
 ---------------------------------------------------------------------
 Rotational constants (GHZ):         601.6701976         546.8218384         286.4681628
 Standard basis: Aug-CC-pVDZ (5D, 7F)
 There are    20 symmetry adapted cartesian basis functions of A1  symmetry.
 There are     4 symmetry adapted cartesian basis functions of A2  symmetry.
 There are     7 symmetry adapted cartesian basis functions of B1  symmetry.
 There are    12 symmetry adapted cartesian basis functions of B2  symmetry.
 There are    18 symmetry adapted basis functions of A1  symmetry.
 There are     4 symmetry adapted basis functions of A2  symmetry.
 There are     7 symmetry adapted basis functions of B1  symmetry.
 There are    12 symmetry adapted basis functions of B2  symmetry.
    41 basis functions,    65 primitive gaussians,    43 cartesian basis functions
     5 alpha electrons        5 beta electrons
       nuclear repulsion energy         9.1753581374 Hartrees.
 NAtoms=    3 NActive=    3 NUniq=    2 SFac= 2.25D+00 NAtFMM=   60 NAOKFM=F Big=F
 Integral buffers will be    131072 words long.
 Raffenetti 1 integral format.
 Two-electron integral symmetry is turned on.
 One-electron integrals computed using PRISM.
 NBasis=    41 RedAO= T EigKep=  1.65D-03  NBF=    18     4     7    12
 NBsUse=    41 1.00D-06 EigRej= -1.00D+00 NBFU=    18     4     7    12
 Initial guess from the checkpoint file:  "water_HOH_scan.chk"
 B after Tr=    -0.000000    0.000000   -0.000000
         Rot=    1.000000   -0.000000   -0.000000    0.000000 Ang=   0.00 deg.
 Initial guess orbital symmetries:
       Occupied  (A1) (A1) (B2) (A1) (B1)
       Virtual   (A1) (B2) (A1) (B1) (A1) (B2) (B2) (A1) (A1) (B1)
                 (A2) (B2) (A1) (B2) (B2) (A1) (B1) (A1) (A2) (A1)
                 (B2) (B1) (A1) (A2) (A1) (B2) (B1) (B2) (B2) (A1)
                 (A1) (A1) (B1) (A2) (A1) (B2)
 ExpMin= 2.97D-02 ExpMax= 1.17D+04 ExpMxC= 4.01D+02 IAcc=3 IRadAn=         5 AccDes= 0.00D+00
 Harris functional with IExCor=  205 and IRadAn=       5 diagonalized for initial guess.
 HarFok:  IExCor=  205 AccDes= 0.00D+00 IRadAn=         5 IDoV= 1 UseB2=F ITyADJ=14
 ICtDFT=  3500011 ScaDFX=  1.000000  1.000000  1.000000  1.000000
 FoFCou: FMM=F IPFlag=           0 FMFlag=      100000 FMFlg1=           0
         NFxFlg=           0 DoJE=T BraDBF=F KetDBF=T FulRan=T
         wScrn=  0.000000 ICntrl=       500 IOpCl=  0 I1Cent=   200000004 NGrid=           0
         NMat0=    1 NMatS0=      1 NMatT0=    0 NMatD0=    1 NMtDS0=    0 NMtDT0=    0
 Petite list used in FoFCou.
 Keep R1 ints in memory in symmetry-blocked form, NReq=1211433.
 Requested convergence on RMS density matrix=1.00D-08 within 128 cycles.
 Requested convergence on MAX density matrix=1.00D-06.
 Requested convergence on             energy=1.00D-06.
 No special actions if energy rises.
 SCF Done:  E(RHF) =  -76.0275875689     A.U. after    9 cycles
            NFock=  9  Conv=0.59D-08     -V/T= 2.0014
 ExpMin= 2.97D-02 ExpMax= 1.17D+04 ExpMxC= 4.01D+02 IAcc=3 IRadAn=         5 AccDes= 0.00D+00
 HarFok:  IExCor=  205 AccDes= 0.00D+00 IRadAn=         5 IDoV=-2 UseB2=F ITyADJ=14
 ICtDFT= 12500011 ScaDFX=  1.000000  1.000000  1.000000  1.000000
 Range of M.O.s used for correlation:     2    41
 NBasis=    41 NAE=     5 NBE=     5 NFC=     1 NFV=     0
 NROrb=     40 NOA=     4 NOB=     4 NVA=    36 NVB=    36

 **** Warning!!: The largest alpha MO coefficient is  0.12027045D+02

 Fully in-core method, ICMem=     7154859.
 JobTyp=1 Pass  1 fully in-core, NPsUse=  1.
 Spin components of T(2) and E(2):
     alpha-alpha T2 =       0.7992297811D-02 E2=     -0.2843524283D-01
     alpha-beta  T2 =       0.4494069028D-01 E2=     -0.1656588050D+00
     beta-beta   T2 =       0.7992297811D-02 E2=     -0.2843524283D-01
 ANorm=    0.1030012275D+01
 E2 =    -0.2225292907D+00 EUMP2 =    -0.76250116859592D+02
          IDoAtm=111
          Differentiating once with respect to electric field.
                with respect to dipole field.
          Differentiating once with respect to nuclear coordinates.
 Keep R1 ints in memory in symmetry-blocked form, NReq=1212048.
          There are     1 degrees of freedom in the 1st order CPHF.  IDoFFX=0 NUNeed=     1.
 LinEq1:  Iter=  0 NonCon=     1 RMS=8.48D-03 Max=6.70D-02 NDo=     1
 AX will form     1 AO Fock derivatives at one time.
 LinEq1:  Iter=  1 NonCon=     1 RMS=1.87D-03 Max=1.15D-02 NDo=     1
 LinEq1:  Iter=  2 NonCon=     1 RMS=7.16D-04 Max=5.49D-03 NDo=     1
 LinEq1:  Iter=  3 NonCon=     1 RMS=8.26D-05 Max=4.44D-04 NDo=     1
 LinEq1:  Iter=  4 NonCon=     1 RMS=9.19D-06 Max=4.01D-05 NDo=     1
 LinEq1:  Iter=  5 NonCon=     1 RMS=1.21D-06 Max=5.05D-06 NDo=     1
 LinEq1:  Iter=  6 NonCon=     1 RMS=1.43D-07 Max=7.89D-07 NDo=     1
 LinEq1:  Iter=  7 NonCon=     1 RMS=1.95D-08 Max=8.68D-08 NDo=     1
 LinEq1:  Iter=  8 NonCon=     1 RMS=2.22D-09 Max=1.69D-08 NDo=     1
 LinEq1:  Iter=  9 NonCon=     1 RMS=2.00D-10 Max=1.10D-09 NDo=     1
 LinEq1:  Iter= 10 NonCon=     0 RMS=1.71D-11 Max=1.07D-10 NDo=     1
 Linear equations converged to 1.000D-10 1.000D-09 after    10 iterations.
 End of Minotr F.D. properties file   721 does not exist.
 End of Minotr F.D. properties file   722 does not exist.
 End of Minotr F.D. properties file   788 does not exist.

 **********************************************************************

            Population analysis using the MP2 Density.

 **********************************************************************

 Orbital symmetries:
       Occupied  (A1) (A1) (B2) (A1) (B1)
       Virtual   (A1) (B2) (A1) (B1) (A1) (B2) (B2) (A1) (A1) (A2)
                 (B1) (B2) (A1) (B2) (B2) (A1) (B1) (A1) (A2) (A1)
                 (B2) (B1) (A1) (A2) (B2) (A1) (B1) (B2) (A1) (B2)
                 (A1) (B1) (A1) (A2) (A1) (B2)
 The electronic state is 1-A1.
 Alpha  occ. eigenvalues --  -20.58666  -1.36903  -0.66963  -0.62584  -0.51431
 Alpha virt. eigenvalues --    0.03313   0.05970   0.17104   0.19953   0.22235
 Alpha virt. eigenvalues --    0.23732   0.28078   0.36111   0.37027   0.39748
 Alpha virt. eigenvalues --    0.40492   0.55727   0.63704   0.66037   0.76748
 Alpha virt. eigenvalues --    0.95829   1.11428   1.11956   1.14689   1.28704
 Alpha virt. eigenvalues --    1.42461   1.45455   1.62015   1.99045   2.04940
 Alpha virt. eigenvalues --    2.07062   2.12322   2.53767   2.64844   2.64860
 Alpha virt. eigenvalues --    3.06661   3.67997   3.68324   3.69337   4.01120
 Alpha virt. eigenvalues --    4.27771
          Condensed to atoms (all electrons):
               1          2          3
     1  O    7.631644   0.300592   0.300592
     2  H    0.300592   0.612353  -0.029359
     3  H    0.300592  -0.029359   0.612353
 Mulliken charges:
               1
     1  O   -0.232828
     2  H    0.116414
     3  H    0.116414
 Sum of Mulliken charges =   0.00000
 Mulliken charges with hydrogens summed into heavy atoms:
               1
     1  O    0.000000
 Electronic spatial extent (au):  <R**2>=             20.2259
 Charge=              0.0000 electrons
 Dipole moment (field-independent basis, Debye):
    X=             -0.0000    Y=              0.0000    Z=             -2.1326  Tot=              2.1326
 Quadrupole moment (field-independent basis, Debye-Ang):
   XX=             -7.8982   YY=             -5.4115   ZZ=             -5.9239
   XY=              0.0000   XZ=              0.0000   YZ=             -0.0000
 Traceless Quadrupole moment (field-independent basis, Debye-Ang):
   XX=             -1.4870   YY=              0.9997   ZZ=              0.4873
   XY=              0.0000   XZ=              0.0000   YZ=             -0.0000
 Octapole moment (field-independent basis, Debye-Ang**2):
  XXX=              0.0000  YYY=              0.0000  ZZZ=             -1.3364  XYY=              0.0000
  XXY=              0.0000  XXZ=             -0.2500  XZZ=              0.0000  YZZ=              0.0000
  YYZ=             -1.1197  XYZ=             -0.0000
 Hexadecapole moment (field-independent basis, Debye-Ang**3):
 XXXX=             -7.8033 YYYY=             -7.2142 ZZZZ=             -8.2652 XXXY=             -0.0000
 XXXZ=             -0.0000 YYYX=             -0.0000 YYYZ=              0.0000 ZZZX=             -0.0000
 ZZZY=              0.0000 XXYY=             -2.6658 XXZZ=             -2.7806 YYZZ=             -2.1376
 XXYZ=              0.0000 YYXZ=              0.0000 ZZXY=              0.0000
 N-N= 9.175358137371D+00 E-N=-1.986048630563D+02  KE= 7.605326207288D+01
 Symmetry A1   KE= 6.789912958240D+01
 Symmetry A2   KE= 1.763478989899D-02
 Symmetry B1   KE= 4.374754413327D+00
 Symmetry B2   KE= 3.761743287251D+00
 Variable Step   Value    
 -------- ---- -----------
     3       5    1.551130
 ---------------------------------------------------------------------------------------------------
                            Z-MATRIX (ANGSTROMS AND DEGREES)
   CD    Cent   Atom    N1       Length/X        N2       Alpha/Y        N3        Beta/Z          J
 ---------------------------------------------------------------------------------------------------
      1      1  O 
      2      2  H        1   0.965929(     1)
      3      3  H        1   0.965929(     2)      2   88.873(     3)
 ---------------------------------------------------------------------------------------------------
                         Z-Matrix orientation:                         
 ---------------------------------------------------------------------
 Center     Atomic      Atomic             Coordinates (Angstroms)
 Number     Number       Type             X           Y           Z
 ---------------------------------------------------------------------
      1          8           0        0.000000    0.000000    0.000000
      2          1           0        0.000000    0.000000    0.965929
      3          1           0        0.965742    0.000000    0.018995
 ---------------------------------------------------------------------
                    Distance matrix (angstroms):
                    1          2          3
     1  O    0.000000
     2  H    0.965929   0.000000
     3  H    0.965929   1.352532   0.000000
 Stoichiometry    H2O
 Framework group  C2V[C2(O),SGV(H2)]
 Deg. of freedom     2
 Full point group                 C2V     NOp   4
 Largest Abelian subgroup         C2V     NOp   4
 Largest concise Abelian subgroup C2      NOp   2
                         Standard orientation:                         
 ---------------------------------------------------------------------
 Center     Atomic      Atomic             Coordinates (Angstroms)
 Number     Number       Type             X           Y           Z
 ---------------------------------------------------------------------
      1          8           0        0.000000   -0.000000    0.137940
      2          1           0        0.000000    0.676266   -0.551758
      3          1           0       -0.000000   -0.676266   -0.551758
 ---------------------------------------------------------------------
 Rotational constants (GHZ):         593.5122035         548.2355596         284.9880731
 Standard basis: Aug-CC-pVDZ (5D, 7F)
 There are    20 symmetry adapted cartesian basis functions of A1  symmetry.
 There are     4 symmetry adapted cartesian basis functions of A2  symmetry.
 There are     7 symmetry adapted cartesian basis functions of B1  symmetry.
 There are    12 symmetry adapted cartesian basis functions of B2  symmetry.
 There are    18 symmetry adapted basis functions of A1  symmetry.
 There are     4 symmetry adapted basis functions of A2  symmetry.
 There are     7 symmetry adapted basis functions of B1  symmetry.
 There are    12 symmetry adapted basis functions of B2  symmetry.
    41 basis functions,    65 primitive gaussians,    43 cartesian basis functions
     5 alpha electrons        5 beta electrons
       nuclear repulsion energy         9.1567345142 Hartrees.
 NAtoms=    3 NActive=    3 NUniq=    2 SFac= 2.25D+00 NAtFMM=   60 NAOKFM=F Big=F
 Integral buffers will be    131072 words long.
 Raffenetti 1 integral format.
 Two-electron integral symmetry is turned on.
 One-electron integrals computed using PRISM.
 NBasis=    41 RedAO= T EigKep=  1.95D-03  NBF=    18     4     7    12
 NBsUse=    41 1.00D-06 EigRej= -1.00D+00 NBFU=    18     4     7    12
 Initial guess from the checkpoint file:  "water_HOH_scan.chk"
 B after Tr=    -0.000000    0.000000    0.000000
         Rot=    1.000000   -0.000000   -0.000000    0.000000 Ang=   0.00 deg.
 Initial guess orbital symmetries:
       Occupied  (A1) (A1) (B2) (A1) (B1)
       Virtual   (A1) (B2) (A1) (B1) (A1) (B2) (B2) (A1) (A1) (A2)
                 (B1) (B2) (A1) (B2) (B2) (A1) (B1) (A1) (A2) (A1)
                 (B2) (B1) (A1) (A2) (B2) (A1) (B1) (B2) (A1) (B2)
                 (A1) (B1) (A1) (A2) (A1) (B2)
 ExpMin= 2.97D-02 ExpMax= 1.17D+04 ExpMxC= 4.01D+02 IAcc=3 IRadAn=         5 AccDes= 0.00D+00
 Harris functional with IExCor=  205 and IRadAn=       5 diagonalized for initial guess.
 HarFok:  IExCor=  205 AccDes= 0.00D+00 IRadAn=         5 IDoV= 1 UseB2=F ITyADJ=14
 ICtDFT=  3500011 ScaDFX=  1.000000  1.000000  1.000000  1.000000
 FoFCou: FMM=F IPFlag=           0 FMFlag=      100000 FMFlg1=           0
         NFxFlg=           0 DoJE=T BraDBF=F KetDBF=T FulRan=T
         wScrn=  0.000000 ICntrl=       500 IOpCl=  0 I1Cent=   200000004 NGrid=           0
         NMat0=    1 NMatS0=      1 NMatT0=    0 NMatD0=    1 NMtDS0=    0 NMtDT0=    0
 Petite list used in FoFCou.
 Keep R1 ints in memory in symmetry-blocked form, NReq=1211433.
 Requested convergence on RMS density matrix=1.00D-08 within 128 cycles.
 Requested convergence on MAX density matrix=1.00D-06.
 Requested convergence on             energy=1.00D-06.
 No special actions if energy rises.
 SCF Done:  E(RHF) =  -76.0332364504     A.U. after    9 cycles
            NFock=  9  Conv=0.63D-08     -V/T= 2.0015
 ExpMin= 2.97D-02 ExpMax= 1.17D+04 ExpMxC= 4.01D+02 IAcc=3 IRadAn=         5 AccDes= 0.00D+00
 HarFok:  IExCor=  205 AccDes= 0.00D+00 IRadAn=         5 IDoV=-2 UseB2=F ITyADJ=14
 ICtDFT= 12500011 ScaDFX=  1.000000  1.000000  1.000000  1.000000
 Range of M.O.s used for correlation:     2    41
 NBasis=    41 NAE=     5 NBE=     5 NFC=     1 NFV=     0
 NROrb=     40 NOA=     4 NOB=     4 NVA=    36 NVB=    36

 **** Warning!!: The largest alpha MO coefficient is  0.10703886D+02

 Fully in-core method, ICMem=     7154859.
 JobTyp=1 Pass  1 fully in-core, NPsUse=  1.
 Spin components of T(2) and E(2):
     alpha-alpha T2 =       0.7923561009D-02 E2=     -0.2828251352D-01
     alpha-beta  T2 =       0.4468276592D-01 E2=     -0.1651960724D+00
     beta-beta   T2 =       0.7923561009D-02 E2=     -0.2828251352D-01
 ANorm=    0.1029820318D+01
 E2 =    -0.2217610995D+00 EUMP2 =    -0.76254997549857D+02
          IDoAtm=111
          Differentiating once with respect to electric field.
                with respect to dipole field.
          Differentiating once with respect to nuclear coordinates.
 Keep R1 ints in memory in symmetry-blocked form, NReq=1212048.
          There are     1 degrees of freedom in the 1st order CPHF.  IDoFFX=0 NUNeed=     1.
 LinEq1:  Iter=  0 NonCon=     1 RMS=8.43D-03 Max=6.69D-02 NDo=     1
 AX will form     1 AO Fock derivatives at one time.
 LinEq1:  Iter=  1 NonCon=     1 RMS=1.84D-03 Max=1.14D-02 NDo=     1
 LinEq1:  Iter=  2 NonCon=     1 RMS=7.04D-04 Max=5.37D-03 NDo=     1
 LinEq1:  Iter=  3 NonCon=     1 RMS=7.79D-05 Max=4.35D-04 NDo=     1
 LinEq1:  Iter=  4 NonCon=     1 RMS=8.26D-06 Max=3.61D-05 NDo=     1
 LinEq1:  Iter=  5 NonCon=     1 RMS=1.23D-06 Max=4.96D-06 NDo=     1
 LinEq1:  Iter=  6 NonCon=     1 RMS=1.85D-07 Max=1.09D-06 NDo=     1
 LinEq1:  Iter=  7 NonCon=     1 RMS=2.25D-08 Max=1.39D-07 NDo=     1
 LinEq1:  Iter=  8 NonCon=     1 RMS=2.36D-09 Max=1.75D-08 NDo=     1
 LinEq1:  Iter=  9 NonCon=     1 RMS=2.02D-10 Max=1.13D-09 NDo=     1
 LinEq1:  Iter= 10 NonCon=     0 RMS=1.71D-11 Max=1.04D-10 NDo=     1
 Linear equations converged to 1.000D-10 1.000D-09 after    10 iterations.
 End of Minotr F.D. properties file   721 does not exist.
 End of Minotr F.D. properties file   722 does not exist.
 End of Minotr F.D. properties file   788 does not exist.

 **********************************************************************

            Population analysis using the MP2 Density.

 **********************************************************************

 Orbital symmetries:
       Occupied  (A1) (A1) (B2) (A1) (B1)
       Virtual   (A1) (B2) (A1) (B1) (A1) (B2) (B2) (A1) (A1) (A2)
                 (B1) (B2) (A1) (B2) (B2) (A1) (B1) (A1) (A2) (A1)
                 (B2) (B1) (A1) (A2) (B2) (B1) (A1) (B2) (A1) (B2)
                 (A1) (B1) (A1) (A2) (A1) (B2)
 The electronic state is 1-A1.
 Alpha  occ. eigenvalues --  -20.58500  -1.36445  -0.68134  -0.61545  -0.51303
 Alpha virt. eigenvalues --    0.03373   0.05927   0.17192   0.19894   0.22275
 Alpha virt. eigenvalues --    0.23616   0.28171   0.35555   0.37511   0.39441
 Alpha virt. eigenvalues --    0.41101   0.55283   0.64000   0.66032   0.77441
 Alpha virt. eigenvalues --    0.95915   1.11287   1.12309   1.14718   1.27587
 Alpha virt. eigenvalues --    1.43533   1.46083   1.60532   1.98679   2.03964
 Alpha virt. eigenvalues --    2.13008   2.14654   2.51182   2.64181   2.66604
 Alpha virt. eigenvalues --    3.05890   3.67954   3.68905   3.69513   3.99304
 Alpha virt. eigenvalues --    4.29188
          Condensed to atoms (all electrons):
               1          2          3
     1  O    7.618502   0.305157   0.305157
     2  H    0.305157   0.616179  -0.035745
     3  H    0.305157  -0.035745   0.616179
 Mulliken charges:
               1
     1  O   -0.228816
     2  H    0.114408
     3  H    0.114408
 Sum of Mulliken charges =  -0.00000
 Mulliken charges with hydrogens summed into heavy atoms:
               1
     1  O   -0.000000
 Electronic spatial extent (au):  <R**2>=             20.2410
 Charge=             -0.0000 electrons
 Dipole moment (field-independent basis, Debye):
    X=             -0.0000    Y=              0.0000    Z=             -2.0750  Tot=              2.0750
 Quadrupole moment (field-independent basis, Debye-Ang):
   XX=             -7.9067   YY=             -5.1949   ZZ=             -6.0742
   XY=              0.0000   XZ=              0.0000   YZ=             -0.0000
 Traceless Quadrupole moment (field-independent basis, Debye-Ang):
   XX=             -1.5147   YY=              1.1970   ZZ=              0.3177
   XY=              0.0000   XZ=              0.0000   YZ=             -0.0000
 Octapole moment (field-independent basis, Debye-Ang**2):
  XXX=              0.0000  YYY=              0.0000  ZZZ=             -1.2511  XYY=             -0.0000
  XXY=             -0.0000  XXZ=             -0.2465  XZZ=              0.0000  YZZ=              0.0000
  YYZ=             -1.1838  XYZ=             -0.0000
 Hexadecapole moment (field-independent basis, Debye-Ang**3):
 XXXX=             -7.8362 YYYY=             -7.1349 ZZZZ=             -8.2636 XXXY=             -0.0000
 XXXZ=             -0.0000 YYYX=             -0.0000 YYYZ=             -0.0000 ZZZX=             -0.0000
 ZZZY=             -0.0000 XXYY=             -2.6945 XXZZ=             -2.7715 YYZZ=             -2.1352
 XXYZ=              0.0000 YYXZ=              0.0000 ZZXY=             -0.0000
 N-N= 9.156734514230D+00 E-N=-1.985803786895D+02  KE= 7.604273129233D+01
 Symmetry A1   KE= 6.792090345357D+01
 Symmetry A2   KE= 1.768920320305D-02
 Symmetry B1   KE= 4.372809336086D+00
 Symmetry B2   KE= 3.731329299469D+00
 Variable Step   Value    
 -------- ---- -----------
     3       6    1.638397
 ---------------------------------------------------------------------------------------------------
                            Z-MATRIX (ANGSTROMS AND DEGREES)
   CD    Cent   Atom    N1       Length/X        N2       Alpha/Y        N3        Beta/Z          J
 ---------------------------------------------------------------------------------------------------
      1      1  O 
      2      2  H        1   0.965929(     1)
      3      3  H        1   0.965929(     2)      2   93.873(     3)
 ---------------------------------------------------------------------------------------------------
                         Z-Matrix orientation:                         
 ---------------------------------------------------------------------
 Center     Atomic      Atomic             Coordinates (Angstroms)
 Number     Number       Type             X           Y           Z
 ---------------------------------------------------------------------
      1          8           0        0.000000    0.000000    0.000000
      2          1           0        0.000000    0.000000    0.965929
      3          1           0        0.963723    0.000000   -0.065247
 ---------------------------------------------------------------------
                    Distance matrix (angstroms):
                    1          2          3
     1  O    0.000000
     2  H    0.965929   0.000000
     3  H    0.965929   1.411413   0.000000
 Stoichiometry    H2O
 Framework group  C2V[C2(O),SGV(H2)]
 Deg. of freedom     2
 Full point group                 C2V     NOp   4
 Largest Abelian subgroup         C2V     NOp   4
 Largest concise Abelian subgroup C2      NOp   2
                         Standard orientation:                         
 ---------------------------------------------------------------------
 Center     Atomic      Atomic             Coordinates (Angstroms)
 Number     Number       Type             X           Y           Z
 ---------------------------------------------------------------------
      1          8           0        0.000000    0.000000    0.131909
      2          1           0       -0.000000    0.705706   -0.527635
      3          1           0       -0.000000   -0.705706   -0.527635
 ---------------------------------------------------------------------
 Rotational constants (GHZ):         649.0243913         503.4472900         283.5206940
 Standard basis: Aug-CC-pVDZ (5D, 7F)
 There are    20 symmetry adapted cartesian basis functions of A1  symmetry.
 There are     4 symmetry adapted cartesian basis functions of A2  symmetry.
 There are     7 symmetry adapted cartesian basis functions of B1  symmetry.
 There are    12 symmetry adapted cartesian basis functions of B2  symmetry.
 There are    18 symmetry adapted basis functions of A1  symmetry.
 There are     4 symmetry adapted basis functions of A2  symmetry.
 There are     7 symmetry adapted basis functions of B1  symmetry.
 There are    12 symmetry adapted basis functions of B2  symmetry.
    41 basis functions,    65 primitive gaussians,    43 cartesian basis functions
     5 alpha electrons        5 beta electrons
       nuclear repulsion energy         9.1404124334 Hartrees.
 NAtoms=    3 NActive=    3 NUniq=    2 SFac= 2.25D+00 NAtFMM=   60 NAOKFM=F Big=F
 Integral buffers will be    131072 words long.
 Raffenetti 1 integral format.
 Two-electron integral symmetry is turned on.
 One-electron integrals computed using PRISM.
 NBasis=    41 RedAO= T EigKep=  2.24D-03  NBF=    18     4     7    12
 NBsUse=    41 1.00D-06 EigRej= -1.00D+00 NBFU=    18     4     7    12
 Initial guess from the checkpoint file:  "water_HOH_scan.chk"
 B after Tr=    -0.000000   -0.000000    0.000000
         Rot=    1.000000    0.000000   -0.000000   -0.000000 Ang=   0.00 deg.
 Initial guess orbital symmetries:
       Occupied  (A1) (A1) (B2) (A1) (B1)
       Virtual   (A1) (B2) (A1) (B1) (A1) (B2) (B2) (A1) (A1) (A2)
                 (B1) (B2) (A1) (B2) (B2) (A1) (B1) (A1) (A2) (A1)
                 (B2) (B1) (A1) (A2) (B2) (B1) (A1) (B2) (A1) (B2)
                 (A1) (B1) (A1) (A2) (A1) (B2)
 ExpMin= 2.97D-02 ExpMax= 1.17D+04 ExpMxC= 4.01D+02 IAcc=3 IRadAn=         5 AccDes= 0.00D+00
 Harris functional with IExCor=  205 and IRadAn=       5 diagonalized for initial guess.
 HarFok:  IExCor=  205 AccDes= 0.00D+00 IRadAn=         5 IDoV= 1 UseB2=F ITyADJ=14
 ICtDFT=  3500011 ScaDFX=  1.000000  1.000000  1.000000  1.000000
 FoFCou: FMM=F IPFlag=           0 FMFlag=      100000 FMFlg1=           0
         NFxFlg=           0 DoJE=T BraDBF=F KetDBF=T FulRan=T
         wScrn=  0.000000 ICntrl=       500 IOpCl=  0 I1Cent=   200000004 NGrid=           0
         NMat0=    1 NMatS0=      1 NMatT0=    0 NMatD0=    1 NMtDS0=    0 NMtDT0=    0
 Petite list used in FoFCou.
 Keep R1 ints in memory in symmetry-blocked form, NReq=1211433.
 Requested convergence on RMS density matrix=1.00D-08 within 128 cycles.
 Requested convergence on MAX density matrix=1.00D-06.
 Requested convergence on             energy=1.00D-06.
 No special actions if energy rises.
 SCF Done:  E(RHF) =  -76.0372558904     A.U. after    9 cycles
            NFock=  9  Conv=0.70D-08     -V/T= 2.0017
 ExpMin= 2.97D-02 ExpMax= 1.17D+04 ExpMxC= 4.01D+02 IAcc=3 IRadAn=         5 AccDes= 0.00D+00
 HarFok:  IExCor=  205 AccDes= 0.00D+00 IRadAn=         5 IDoV=-2 UseB2=F ITyADJ=14
 ICtDFT= 12500011 ScaDFX=  1.000000  1.000000  1.000000  1.000000
 Range of M.O.s used for correlation:     2    41
 NBasis=    41 NAE=     5 NBE=     5 NFC=     1 NFV=     0
 NROrb=     40 NOA=     4 NOB=     4 NVA=    36 NVB=    36
 Fully in-core method, ICMem=     7154859.
 JobTyp=1 Pass  1 fully in-core, NPsUse=  1.
 Spin components of T(2) and E(2):
     alpha-alpha T2 =       0.7866557668D-02 E2=     -0.2815817003D-01
     alpha-beta  T2 =       0.4445159365D-01 E2=     -0.1647796807D+00
     beta-beta   T2 =       0.7866557668D-02 E2=     -0.2815817003D-01
 ANorm=    0.1029652713D+01
 E2 =    -0.2210960207D+00 EUMP2 =    -0.76258351911180D+02
          IDoAtm=111
          Differentiating once with respect to electric field.
                with respect to dipole field.
          Differentiating once with respect to nuclear coordinates.
 Keep R1 ints in memory in symmetry-blocked form, NReq=1212048.
          There are     1 degrees of freedom in the 1st order CPHF.  IDoFFX=0 NUNeed=     1.
 LinEq1:  Iter=  0 NonCon=     1 RMS=8.39D-03 Max=6.69D-02 NDo=     1
 AX will form     1 AO Fock derivatives at one time.
 LinEq1:  Iter=  1 NonCon=     1 RMS=1.82D-03 Max=1.12D-02 NDo=     1
 LinEq1:  Iter=  2 NonCon=     1 RMS=6.92D-04 Max=5.26D-03 NDo=     1
 LinEq1:  Iter=  3 NonCon=     1 RMS=7.40D-05 Max=4.24D-04 NDo=     1
 LinEq1:  Iter=  4 NonCon=     1 RMS=7.66D-06 Max=3.33D-05 NDo=     1
 LinEq1:  Iter=  5 NonCon=     1 RMS=1.30D-06 Max=5.74D-06 NDo=     1
 LinEq1:  Iter=  6 NonCon=     1 RMS=2.14D-07 Max=1.10D-06 NDo=     1
 LinEq1:  Iter=  7 NonCon=     1 RMS=2.31D-08 Max=1.58D-07 NDo=     1
 LinEq1:  Iter=  8 NonCon=     1 RMS=2.43D-09 Max=1.75D-08 NDo=     1
 LinEq1:  Iter=  9 NonCon=     1 RMS=2.03D-10 Max=1.16D-09 NDo=     1
 LinEq1:  Iter= 10 NonCon=     0 RMS=1.69D-11 Max=1.00D-10 NDo=     1
 Linear equations converged to 1.000D-10 1.000D-09 after    10 iterations.
 End of Minotr F.D. properties file   721 does not exist.
 End of Minotr F.D. properties file   722 does not exist.
 End of Minotr F.D. properties file   788 does not exist.

 **********************************************************************

            Population analysis using the MP2 Density.

 **********************************************************************

 Orbital symmetries:
       Occupied  (A1) (A1) (B2) (A1) (B1)
       Virtual   (A1) (B2) (A1) (B1) (A1) (B2) (B2) (A1) (A1) (A2)
                 (B1) (B2) (A1) (B2) (B2) (A1) (B1) (A1) (A2) (A1)
                 (B2) (B1) (A1) (A2) (B2) (B1) (A1) (B2) (A1) (B2)
                 (A1) (B1) (A1) (A2) (A1) (B2)
 The electronic state is 1-A1.
 Alpha  occ. eigenvalues --  -20.58318  -1.36024  -0.69256  -0.60524  -0.51171
 Alpha virt. eigenvalues --    0.03428   0.05883   0.17272   0.19835   0.22286
 Alpha virt. eigenvalues --    0.23486   0.28322   0.34736   0.38325   0.39139
 Alpha virt. eigenvalues --    0.41748   0.54821   0.64250   0.65976   0.78349
 Alpha virt. eigenvalues --    0.95397   1.11046   1.12466   1.14748   1.27333
 Alpha virt. eigenvalues --    1.44559   1.46720   1.59490   1.98794   2.02692
 Alpha virt. eigenvalues --    2.12830   2.22267   2.49156   2.63190   2.68262
 Alpha virt. eigenvalues --    3.04030   3.67825   3.69276   3.69698   3.98503
 Alpha virt. eigenvalues --    4.29958
          Condensed to atoms (all electrons):
               1          2          3
     1  O    7.609017   0.309513   0.309513
     2  H    0.309513   0.617379  -0.040913
     3  H    0.309513  -0.040913   0.617379
 Mulliken charges:
               1
     1  O   -0.228043
     2  H    0.114021
     3  H    0.114021
 Sum of Mulliken charges =  -0.00000
 Mulliken charges with hydrogens summed into heavy atoms:
               1
     1  O   -0.000000
 Electronic spatial extent (au):  <R**2>=             20.2577
 Charge=             -0.0000 electrons
 Dipole moment (field-independent basis, Debye):
    X=             -0.0000    Y=             -0.0000    Z=             -2.0138  Tot=              2.0138
 Quadrupole moment (field-independent basis, Debye-Ang):
   XX=             -7.9158   YY=             -4.9783   ZZ=             -6.2259
   XY=              0.0000   XZ=              0.0000   YZ=              0.0000
[...]
 Harris functional with IExCor=  205 and IRadAn=       5 diagonalized for initial guess.
 HarFok:  IExCor=  205 AccDes= 0.00D+00 IRadAn=         5 IDoV= 1 UseB2=F ITyADJ=14
 ICtDFT=  3500011 ScaDFX=  1.000000  1.000000  1.000000  1.000000
 FoFCou: FMM=F IPFlag=           0 FMFlag=      100000 FMFlg1=           0
         NFxFlg=           0 DoJE=T BraDBF=F KetDBF=T FulRan=T
         wScrn=  0.000000 ICntrl=       500 IOpCl=  0 I1Cent=   200000004 NGrid=           0
         NMat0=    1 NMatS0=      1 NMatT0=    0 NMatD0=    1 NMtDS0=    0 NMtDT0=    0
 Petite list used in FoFCou.
 Keep R1 ints in memory in symmetry-blocked form, NReq=1211433.
 Requested convergence on RMS density matrix=1.00D-08 within 128 cycles.
 Requested convergence on MAX density matrix=1.00D-06.
 Requested convergence on             energy=1.00D-06.
 No special actions if energy rises.
 SCF Done:  E(RHF) =  -76.0063864481     A.U. after   10 cycles
            NFock= 10  Conv=0.29D-08     -V/T= 2.0025
 ExpMin= 2.97D-02 ExpMax= 1.17D+04 ExpMxC= 4.01D+02 IAcc=3 IRadAn=         5 AccDes= 0.00D+00
 HarFok:  IExCor=  205 AccDes= 0.00D+00 IRadAn=         5 IDoV=-2 UseB2=F ITyADJ=14
 ICtDFT= 12500011 ScaDFX=  1.000000  1.000000  1.000000  1.000000
 Range of M.O.s used for correlation:     2    41
 NBasis=    41 NAE=     5 NBE=     5 NFC=     1 NFV=     0
 NROrb=     40 NOA=     4 NOB=     4 NVA=    36 NVB=    36
 Fully in-core method, ICMem=     7154859.
 JobTyp=1 Pass  1 fully in-core, NPsUse=  1.
 Spin components of T(2) and E(2):
     alpha-alpha T2 =       0.7905815885D-02 E2=     -0.2841797967D-01
     alpha-beta  T2 =       0.4406574772D-01 E2=     -0.1640847019D+00
     beta-beta   T2 =       0.7905815885D-02 E2=     -0.2841797967D-01
 ANorm=    0.1029503463D+01
 E2 =    -0.2209206613D+00 EUMP2 =    -0.76227307109320D+02
          IDoAtm=111
          Differentiating once with respect to electric field.
                with respect to dipole field.
          Differentiating once with respect to nuclear coordinates.
 Keep R1 ints in memory in symmetry-blocked form, NReq=1212048.
          There are     1 degrees of freedom in the 1st order CPHF.  IDoFFX=0 NUNeed=     1.
 LinEq1:  Iter=  0 NonCon=     1 RMS=8.47D-03 Max=6.69D-02 NDo=     1
 AX will form     1 AO Fock derivatives at one time.
 LinEq1:  Iter=  1 NonCon=     1 RMS=1.83D-03 Max=1.03D-02 NDo=     1
 LinEq1:  Iter=  2 NonCon=     1 RMS=5.99D-04 Max=3.93D-03 NDo=     1
 LinEq1:  Iter=  3 NonCon=     1 RMS=5.35D-05 Max=2.85D-04 NDo=     1
 LinEq1:  Iter=  4 NonCon=     1 RMS=6.83D-06 Max=3.82D-05 NDo=     1
 LinEq1:  Iter=  5 NonCon=     1 RMS=1.72D-06 Max=8.00D-06 NDo=     1
 LinEq1:  Iter=  6 NonCon=     1 RMS=2.26D-07 Max=1.13D-06 NDo=     1
 LinEq1:  Iter=  7 NonCon=     1 RMS=2.09D-08 Max=1.50D-07 NDo=     1
 LinEq1:  Iter=  8 NonCon=     1 RMS=3.06D-09 Max=1.48D-08 NDo=     1
 LinEq1:  Iter=  9 NonCon=     1 RMS=2.44D-10 Max=1.48D-09 NDo=     1
 LinEq1:  Iter= 10 NonCon=     0 RMS=1.76D-11 Max=7.94D-11 NDo=     1
 Linear equations converged to 1.000D-10 1.000D-09 after    10 iterations.
 End of Minotr F.D. properties file   721 does not exist.
 End of Minotr F.D. properties file   722 does not exist.
 End of Minotr F.D. properties file   788 does not exist.

 **********************************************************************

            Population analysis using the MP2 Density.

 **********************************************************************

 Orbital symmetries:
       Occupied  (A1) (A1) (B2) (A1) (B1)
       Virtual   (A1) (B2) (A1) (B1) (A1) (B2) (A1) (B2) (A2) (B2)
                 (A1) (B1) (B2) (A1) (A1) (B2) (B1) (A1) (A2) (B2)
                 (B1) (A1) (A1) (B1) (B2) (A1) (A2) (B2) (A1) (B2)
                 (A1) (B1) (A1) (A2) (B2) (A1)
 The electronic state is 1-A1.
 Alpha  occ. eigenvalues --  -20.55286  -1.32538  -0.77204  -0.50752  -0.49321
 Alpha virt. eigenvalues --    0.03688   0.05438   0.18219   0.19358   0.20112
 Alpha virt. eigenvalues --    0.21710   0.28010   0.33173   0.36475   0.48171
 Alpha virt. eigenvalues --    0.49732   0.50424   0.64177   0.64246   0.79229
 Alpha virt. eigenvalues --    0.97493   1.02847   1.02877   1.14878   1.38870
 Alpha virt. eigenvalues --    1.51399   1.53367   1.70506   1.97701   2.06165
 Alpha virt. eigenvalues --    2.23702   2.27151   2.42946   2.50416   2.88237
 Alpha virt. eigenvalues --    3.04403   3.61671   3.61798   3.71655   3.95200
 Alpha virt. eigenvalues --    4.68078
          Condensed to atoms (all electrons):
               1          2          3
     1  O    7.703152   0.348597   0.348597
     2  H    0.348597   0.526273  -0.075043
     3  H    0.348597  -0.075043   0.526273
 Mulliken charges:
               1
     1  O   -0.400346
     2  H    0.200173
     3  H    0.200173
 Sum of Mulliken charges =  -0.00000
 Mulliken charges with hydrogens summed into heavy atoms:
               1
     1  O   -0.000000
 Electronic spatial extent (au):  <R**2>=             20.4627
 Charge=             -0.0000 electrons
 Dipole moment (field-independent basis, Debye):
    X=             -0.0000    Y=              0.0000    Z=             -0.9852  Tot=              0.9852
 Quadrupole moment (field-independent basis, Debye-Ang):
   XX=             -8.0707   YY=             -2.8363   ZZ=             -7.7821
   XY=              0.0000   XZ=              0.0000   YZ=             -0.0000
 Traceless Quadrupole moment (field-independent basis, Debye-Ang):
   XX=             -1.8410   YY=              3.3934   ZZ=             -1.5524
   XY=              0.0000   XZ=              0.0000   YZ=             -0.0000
 Octapole moment (field-independent basis, Debye-Ang**2):
  XXX=              0.0000  YYY=              0.0000  ZZZ=             -0.4148  XYY=             -0.0000
  XXY=             -0.0000  XXZ=             -0.1322  XZZ=              0.0000  YZZ=             -0.0000
  YYZ=             -0.8425  XYZ=             -0.0000
 Hexadecapole moment (field-independent basis, Debye-Ang**3):
 XXXX=             -8.4640 YYYY=             -5.0410 ZZZZ=             -8.5040 XXXY=             -0.0000
 XXXZ=             -0.0000 YYYX=              0.0000 YYYZ=             -0.0000 ZZZX=             -0.0000
 ZZZY=              0.0000 XXYY=             -3.0759 XXZZ=             -2.8302 YYZZ=             -2.9056
 XXYZ=              0.0000 YYXZ=              0.0000 ZZXY=             -0.0000
 N-N= 9.049832328469D+00 E-N=-1.983710367456D+02  KE= 7.592349305119D+01
 Symmetry A1   KE= 6.804772419003D+01
 Symmetry A2   KE= 1.810249387768D-02
 Symmetry B1   KE= 4.321029826525D+00
 Symmetry B2   KE= 3.536636540762D+00
 Variable Step   Value    
 -------- ---- -----------
     3      18    2.685594
 ---------------------------------------------------------------------------------------------------
                            Z-MATRIX (ANGSTROMS AND DEGREES)
   CD    Cent   Atom    N1       Length/X        N2       Alpha/Y        N3        Beta/Z          J
 ---------------------------------------------------------------------------------------------------
      1      1  O 
      2      2  H        1   0.965929(     1)
      3      3  H        1   0.965929(     2)      2  153.873(     3)
 ---------------------------------------------------------------------------------------------------
                         Z-Matrix orientation:                         
 ---------------------------------------------------------------------
 Center     Atomic      Atomic             Coordinates (Angstroms)
 Number     Number       Type             X           Y           Z
 ---------------------------------------------------------------------
      1          8           0        0.000000    0.000000    0.000000
      2          1           0        0.000000    0.000000    0.965929
      3          1           0        0.425356    0.000000   -0.867232
 ---------------------------------------------------------------------
                    Distance matrix (angstroms):
                    1          2          3
     1  O    0.000000
     2  H    0.965929   0.000000
     3  H    0.965929   1.881862   0.000000
 Stoichiometry    H2O
 Framework group  C2V[C2(O),SGV(H2)]
 Deg. of freedom     2
 Full point group                 C2V     NOp   4
 Largest Abelian subgroup         C2V     NOp   4
 Largest concise Abelian subgroup C2      NOp   2
                         Standard orientation:                         
 ---------------------------------------------------------------------
 Center     Atomic      Atomic             Coordinates (Angstroms)
 Number     Number       Type             X           Y           Z
 ---------------------------------------------------------------------
      1          8           0        0.000000   -0.000000    0.043666
      2          1           0        0.000000    0.940931   -0.174662
      3          1           0       -0.000000   -0.940931   -0.174662
 ---------------------------------------------------------------------
 Rotational constants (GHZ):        5922.8230526         283.1954768         270.2725895
 Standard basis: Aug-CC-pVDZ (5D, 7F)
 There are    20 symmetry adapted cartesian basis functions of A1  symmetry.
 There are     4 symmetry adapted cartesian basis functions of A2  symmetry.
 There are     7 symmetry adapted cartesian basis functions of B1  symmetry.
 There are    12 symmetry adapted cartesian basis functions of B2  symmetry.
 There are    18 symmetry adapted basis functions of A1  symmetry.
 There are     4 symmetry adapted basis functions of A2  symmetry.
 There are     7 symmetry adapted basis functions of B1  symmetry.
 There are    12 symmetry adapted basis functions of B2  symmetry.
    41 basis functions,    65 primitive gaussians,    43 cartesian basis functions
     5 alpha electrons        5 beta electrons
       nuclear repulsion energy         9.0466837641 Hartrees.
 NAtoms=    3 NActive=    3 NUniq=    2 SFac= 2.25D+00 NAtFMM=   60 NAOKFM=F Big=F
 Integral buffers will be    131072 words long.
 Raffenetti 1 integral format.
 Two-electron integral symmetry is turned on.
 One-electron integrals computed using PRISM.
 NBasis=    41 RedAO= T EigKep=  2.94D-03  NBF=    18     4     7    12
 NBsUse=    41 1.00D-06 EigRej= -1.00D+00 NBFU=    18     4     7    12
 Initial guess from the checkpoint file:  "water_HOH_scan.chk"
 B after Tr=    -0.000000    0.000000    0.000000
         Rot=    1.000000   -0.000000   -0.000000   -0.000000 Ang=   0.00 deg.
 Initial guess orbital symmetries:
       Occupied  (A1) (A1) (B2) (A1) (B1)
       Virtual   (A1) (B2) (A1) (B1) (A1) (B2) (A1) (B2) (A2) (B2)
                 (A1) (B1) (B2) (A1) (A1) (B2) (B1) (A1) (A2) (B2)
                 (B1) (A1) (A1) (B1) (B2) (A1) (A2) (B2) (A1) (B2)
                 (A1) (B1) (A1) (A2) (B2) (A1)
 ExpMin= 2.97D-02 ExpMax= 1.17D+04 ExpMxC= 4.01D+02 IAcc=3 IRadAn=         5 AccDes= 0.00D+00
 Harris functional with IExCor=  205 and IRadAn=       5 diagonalized for initial guess.
 HarFok:  IExCor=  205 AccDes= 0.00D+00 IRadAn=         5 IDoV= 1 UseB2=F ITyADJ=14
 ICtDFT=  3500011 ScaDFX=  1.000000  1.000000  1.000000  1.000000
 FoFCou: FMM=F IPFlag=           0 FMFlag=      100000 FMFlg1=           0
         NFxFlg=           0 DoJE=T BraDBF=F KetDBF=T FulRan=T
         wScrn=  0.000000 ICntrl=       500 IOpCl=  0 I1Cent=   200000004 NGrid=           0
         NMat0=    1 NMatS0=      1 NMatT0=    0 NMatD0=    1 NMtDS0=    0 NMtDT0=    0
 Petite list used in FoFCou.
 Keep R1 ints in memory in symmetry-blocked form, NReq=1211433.
 Requested convergence on RMS density matrix=1.00D-08 within 128 cycles.
 Requested convergence on MAX density matrix=1.00D-06.
 Requested convergence on             energy=1.00D-06.
 No special actions if energy rises.
 SCF Done:  E(RHF) =  -76.0009036823     A.U. after   10 cycles
            NFock= 10  Conv=0.33D-08     -V/T= 2.0025
 ExpMin= 2.97D-02 ExpMax= 1.17D+04 ExpMxC= 4.01D+02 IAcc=3 IRadAn=         5 AccDes= 0.00D+00
 HarFok:  IExCor=  205 AccDes= 0.00D+00 IRadAn=         5 IDoV=-2 UseB2=F ITyADJ=14
 ICtDFT= 12500011 ScaDFX=  1.000000  1.000000  1.000000  1.000000
 Range of M.O.s used for correlation:     2    41
 NBasis=    41 NAE=     5 NBE=     5 NFC=     1 NFV=     0
 NROrb=     40 NOA=     4 NOB=     4 NVA=    36 NVB=    36
 Fully in-core method, ICMem=     7154859.
 JobTyp=1 Pass  1 fully in-core, NPsUse=  1.
 Spin components of T(2) and E(2):
     alpha-alpha T2 =       0.7941422859D-02 E2=     -0.2851897006D-01
     alpha-beta  T2 =       0.4413436734D-01 E2=     -0.1642066205D+00
     beta-beta   T2 =       0.7941422859D-02 E2=     -0.2851897006D-01
 ANorm=    0.1029571373D+01
 E2 =    -0.2212445606D+00 EUMP2 =    -0.76222148242919D+02
          IDoAtm=111
          Differentiating once with respect to electric field.
                with respect to dipole field.
          Differentiating once with respect to nuclear coordinates.
 Keep R1 ints in memory in symmetry-blocked form, NReq=1212048.
          There are     1 degrees of freedom in the 1st order CPHF.  IDoFFX=0 NUNeed=     1.
 LinEq1:  Iter=  0 NonCon=     1 RMS=8.51D-03 Max=6.68D-02 NDo=     1
 AX will form     1 AO Fock derivatives at one time.
 LinEq1:  Iter=  1 NonCon=     1 RMS=1.84D-03 Max=1.04D-02 NDo=     1
 LinEq1:  Iter=  2 NonCon=     1 RMS=5.92D-04 Max=3.78D-03 NDo=     1
 LinEq1:  Iter=  3 NonCon=     1 RMS=5.13D-05 Max=2.66D-04 NDo=     1
 LinEq1:  Iter=  4 NonCon=     1 RMS=6.14D-06 Max=3.56D-05 NDo=     1
 LinEq1:  Iter=  5 NonCon=     1 RMS=1.60D-06 Max=7.44D-06 NDo=     1
 LinEq1:  Iter=  6 NonCon=     1 RMS=2.23D-07 Max=1.02D-06 NDo=     1
 LinEq1:  Iter=  7 NonCon=     1 RMS=1.98D-08 Max=1.32D-07 NDo=     1
 LinEq1:  Iter=  8 NonCon=     1 RMS=2.90D-09 Max=1.58D-08 NDo=     1
 LinEq1:  Iter=  9 NonCon=     1 RMS=2.50D-10 Max=1.55D-09 NDo=     1
 LinEq1:  Iter= 10 NonCon=     0 RMS=1.80D-11 Max=8.39D-11 NDo=     1
 Linear equations converged to 1.000D-10 1.000D-09 after    10 iterations.
 End of Minotr F.D. properties file   721 does not exist.
 End of Minotr F.D. properties file   722 does not exist.
 End of Minotr F.D. properties file   788 does not exist.

 **********************************************************************

            Population analysis using the MP2 Density.

 **********************************************************************

 Orbital symmetries:
       Occupied  (A1) (A1) (B2) (A1) (B1)
       Virtual   (A1) (B2) (A1) (B1) (A1) (B2) (A1) (B2) (A2) (B2)
                 (A1) (B1) (A1) (B2) (A1) (B2) (B1) (A1) (A2) (B2)
                 (B1) (A1) (A1) (B1) (B2) (A1) (A2) (B2) (A1) (B2)
                 (A1) (B1) (A1) (A2) (B2) (A1)
 The electronic state is 1-A1.
 Alpha  occ. eigenvalues --  -20.54982  -1.32298  -0.77497  -0.50148  -0.49140
 Alpha virt. eigenvalues --    0.03686   0.05411   0.18359   0.19342   0.19820
 Alpha virt. eigenvalues --    0.21585   0.27654   0.33803   0.36332   0.47427
 Alpha virt. eigenvalues --    0.50627   0.51113   0.63953   0.63994   0.78696
 Alpha virt. eigenvalues --    1.00206   1.02000   1.02016   1.14869   1.36045
 Alpha virt. eigenvalues --    1.51529   1.53036   1.75248   1.97192   2.08351
 Alpha virt. eigenvalues --    2.19377   2.30697   2.42456   2.49180   2.91120
 Alpha virt. eigenvalues --    3.08247   3.61039   3.61114   3.71782   3.89681
 Alpha virt. eigenvalues --    4.77544
          Condensed to atoms (all electrons):
               1          2          3
     1  O    7.717146   0.351635   0.351635
     2  H    0.351635   0.514696  -0.076539
     3  H    0.351635  -0.076539   0.514696
 Mulliken charges:
               1
     1  O   -0.420417
     2  H    0.210208
     3  H    0.210208
 Sum of Mulliken charges =  -0.00000
 Mulliken charges with hydrogens summed into heavy atoms:
               1
     1  O   -0.000000
 Electronic spatial extent (au):  <R**2>=             20.4709
 Charge=             -0.0000 electrons
 Dipole moment (field-independent basis, Debye):
    X=             -0.0000    Y=              0.0000    Z=             -0.8462  Tot=              0.8462
 Quadrupole moment (field-independent basis, Debye-Ang):
   XX=             -8.0876   YY=             -2.6941   ZZ=             -7.8810
   XY=              0.0000   XZ=              0.0000   YZ=             -0.0000
 Traceless Quadrupole moment (field-independent basis, Debye-Ang):
   XX=             -1.8667   YY=              3.5268   ZZ=             -1.6601
   XY=              0.0000   XZ=              0.0000   YZ=             -0.0000
 Octapole moment (field-independent basis, Debye-Ang**2):
  XXX=              0.0000  YYY=              0.0000  ZZZ=             -0.3526  XYY=             -0.0000
  XXY=              0.0000  XXZ=             -0.1141  XZZ=              0.0000  YZZ=             -0.0000
  YYZ=             -0.7221  XYZ=             -0.0000
 Hexadecapole moment (field-independent basis, Debye-Ang**3):
 XXXX=             -8.5244 YYYY=             -4.8231 ZZZZ=             -8.5511 XXXY=             -0.0000
 XXXZ=             -0.0000 YYYX=              0.0000 YYYZ=             -0.0000 ZZZX=             -0.0000
 ZZZY=              0.0000 XXYY=             -3.0975 XXZZ=             -2.8470 YYZZ=             -2.9749
 XXYZ=              0.0000 YYXZ=              0.0000 ZZXY=             -0.0000
 N-N= 9.046683764076D+00 E-N=-1.983590748318D+02  KE= 7.591258510894D+01
 Symmetry A1   KE= 6.805035281364D+01
 Symmetry A2   KE= 1.810836155708D-02
 Symmetry B1   KE= 4.315676594747D+00
 Symmetry B2   KE= 3.528447339000D+00
 Scan completed.
 
 Summary of the potential surface scan:
   N       A          SCF          MP2    
 ----  ---------  -----------  -----------
    1    63.8732    -75.98704    -76.21256
    2    68.8732    -76.00008    -76.22503
    3    73.8732    -76.01110    -76.23529
    4    78.8732    -76.02023    -76.24359
    5    83.8732    -76.02759    -76.25012
    6    88.8732    -76.03324    -76.25500
    7    93.8732    -76.03726    -76.25835
    8    98.8732    -76.03973    -76.26029
    9   103.8732    -76.04076    -76.26091
   10   108.8732    -76.04045    -76.26032
   11   113.8732    -76.03892    -76.25863
   12   118.8732    -76.03630    -76.25596
   13   123.8732    -76.03271    -76.25242
   14   128.8732    -76.02832    -76.24816
   15   133.8732    -76.02329    -76.24334
   16   138.8732    -76.01782    -76.23812
   17   143.8732    -76.01211    -76.23271
   18   148.8732    -76.00639    -76.22731
   19   153.8732    -76.00090    -76.22215
 ----  ---------  -----------  -----------
  
 1\1\GINC-N2098\Scan\RMP2-FC\Aug-CC-pVDZ\H2O1\B3M2A1\03-Jul-2021\1\\#MP
 2/aug-cc-pvdz #Density=current #Scan\\Water freq\\0,1\O\H,1,R\H,1,R2,2
 ,A\\R=0.9659289\R2=0.9659289\A=63.87320933,18,5.\\Version=ES64L-G16Rev
 B.01\State=1-A1\HF=-75.9870436,-76.0000844,-76.0110972,-76.0202331,-76
 .0275876,-76.0332365,-76.0372559,-76.0397317,-76.0407614,-76.0404526,-
 76.038922,-76.0362955,-76.0327107,-76.0283195,-76.0232918,-76.017817,-
 76.0121055,-76.0063864,-76.0009037\MP2=-76.2125612,-76.2250337,-76.235
 292,-76.2435937,-76.2501169,-76.2549975,-76.2583519,-76.2602877,-76.26
 09098,-76.2603229,-76.2586349,-76.25596,-76.2524231,-76.2481634,-76.24
 33372,-76.2381198,-76.2327058,-76.2273071,-76.2221482\RMSD=9.150e-09,5
 .303e-09,5.340e-09,5.555e-09,5.859e-09,6.335e-09,7.015e-09,7.714e-09,8
 .338e-09,8.882e-09,9.297e-09,9.575e-09,9.813e-09,1.345e-09,1.677e-09,2
 .066e-09,2.476e-09,2.883e-09,3.269e-09\PG=C02V [C2(O1),SGV(H2)]\\@


 ADVERTISING--  HE WHO HAS SOMETHING TO SELL AND GOES AND WHISPERS
                IN A WELL, IS NOT SO APT TO GET THE DOLLARS AS HE
                WHO CLIMBS A TREE AND HOLLERS.

                   -- FROM THE BACK OF A SUGAR PACKET
 Job cpu time:       0 days  0 hours  0 minutes 36.7 seconds.
 Elapsed time:       0 days  0 hours  0 minutes 36.7 seconds.
 File lengths (MBytes):  RWF=      6 Int=      0 D2E=      0 Chk=      8 Scr=      1
 Normal termination of Gaussian 16 at Sat Jul  3 14:52:16 2021.
