Deuterated/tritiated methane freq                                       
Freq      RMP2-FC                                                     Aug-CC-pVDZ         
Number of atoms                            I                5
Info1-9                                    I   N=           9
          27          27        1002           0           0         100
           6           2           1
Charge                                     I                0
Multiplicity                               I                1
Number of electrons                        I               10
Number of alpha electrons                  I                5
Number of beta electrons                   I                5
Number of basis functions                  I               59
Number of independent functions            I               59
Number of point charges in /Mol/           I                0
Number of translation vectors              I                0
Atomic numbers                             I   N=           5
           6           1           1           1           1
Nuclear charges                            R   N=           5
  6.00000000E+00  1.00000000E+00  1.00000000E+00  1.00000000E+00  1.00000000E+00
Current cartesian coordinates              R   N=          15
 -6.76267799E-25  1.37973726E-20  4.38012420E-08  6.99117674E-17  1.95654889E+00
 -6.91744453E-01 -3.20361735E-17 -4.44089210E-16  2.07523310E+00  1.69442104E+00
 -9.78274445E-01 -6.91744453E-01 -1.69442104E+00 -9.78274445E-01 -6.91744453E-01
Force Field                                I                0
Int Atom Types                             I   N=           5
           0           0           0           0           0
MM charges                                 R   N=           5
  0.00000000E+00  0.00000000E+00  0.00000000E+00  0.00000000E+00  0.00000000E+00
Integer atomic weights                     I   N=           5
          12           1           1           2           3
Real atomic weights                        R   N=           5
  1.20000000E+01  1.00782504E+00  1.00782504E+00  2.01410179E+00  3.01604929E+00
Atom fragment info                         I   N=           5
           0           0           0           0           0
Atom residue num                           I   N=           5
           0           0           0           0           0
Nuclear spins                              I   N=           5
           0           1           1           2           1
Nuclear ZEff                               R   N=           5
 -3.60000000E+00 -1.00000000E+00 -1.00000000E+00 -1.00000000E+00 -1.00000000E+00
Nuclear ZNuc                               R   N=           5
  6.00000000E+00  1.00000000E+00  1.00000000E+00  1.00000000E+00  1.00000000E+00
Nuclear QMom                               R   N=           5
  0.00000000E+00  0.00000000E+00  0.00000000E+00  2.86000000E-01  0.00000000E+00
Nuclear GFac                               R   N=           5
  0.00000000E+00  2.79284600E+00  2.79284600E+00  8.57438000E-01  2.97896000E+00
MicOpt                                     I   N=           5
          -1          -1          -1          -1          -1
SymInf integers                            I   N=          26
           2           2           1           1           1          -1
           1           1           0           0           0           0
           0           0           0           0           0           0
           0           0           0           0           0           0
           0           0
RotTr to input orientation                 R   N=          12
 -2.03915526E-09  1.00000000E+00 -4.55835480E-10  3.33806860E-01  1.11037346E-09
  9.42641491E-01  9.42641491E-01  1.77003133E-09 -3.33806860E-01 -5.59292969E-04
 -2.88657986E-16  1.98056028E-04
Number of contracted shells                I               29
Number of primitive shells                 I               51
Pure/Cartesian d shells                    I                0
Pure/Cartesian f shells                    I                0
Highest angular momentum                   I                2
Largest degree of contraction              I                7
Shell types                                I   N=          29
           0           0           0           0           1           1
           1          -2          -2           0           0           0
           1           1           0           0           0           1
           1           0           0           0           1           1
           0           0           0           1           1
Number of primitives per shell             I   N=          29
           7           7           1           1           3           1
           1           1           1           3           1           1
           1           1           3           1           1           1
           1           3           1           1           1           1
           3           1           1           1           1
Shell to atom map                          I   N=          29
           1           1           1           1           1           1
           1           1           1           2           2           2
           2           2           3           3           3           3
           3           4           4           4           4           4
           5           5           5           5           5
Primitive exponents                        R   N=          51
  6.66500000E+03  1.00000000E+03  2.28000000E+02  6.47100000E+01  2.10600000E+01
  7.49500000E+00  2.79700000E+00  6.66500000E+03  2.28000000E+02  6.47100000E+01
  2.10600000E+01  7.49500000E+00  2.79700000E+00  5.21500000E-01  1.59600000E-01
  4.69000000E-02  9.43900000E+00  2.00200000E+00  5.45600000E-01  1.51700000E-01
  4.04100000E-02  5.50000000E-01  1.51000000E-01  1.30100000E+01  1.96200000E+00
  4.44600000E-01  1.22000000E-01  2.97400000E-02  7.27000000E-01  1.41000000E-01
  1.30100000E+01  1.96200000E+00  4.44600000E-01  1.22000000E-01  2.97400000E-02
  7.27000000E-01  1.41000000E-01  1.30100000E+01  1.96200000E+00  4.44600000E-01
  1.22000000E-01  2.97400000E-02  7.27000000E-01  1.41000000E-01  1.30100000E+01
  1.96200000E+00  4.44600000E-01  1.22000000E-01  2.97400000E-02  7.27000000E-01
  1.41000000E-01
Contraction coefficients                   R   N=          51
  6.93516317E-04  5.34150243E-03  2.71366714E-02  1.01992385E-01  2.75508636E-01
  4.51086433E-01  2.87565745E-01  7.73354740E-06  2.78072137E-04 -2.57875654E-03
 -8.95087684E-03 -1.06058855E-01 -1.31517686E-01  1.09948660E+00  1.00000000E+00
  1.00000000E+00  5.69792516E-02  3.13207212E-01  7.60376742E-01  1.00000000E+00
  1.00000000E+00  1.00000000E+00  1.00000000E+00  3.34987264E-02  2.34800801E-01
  8.13682958E-01  1.00000000E+00  1.00000000E+00  1.00000000E+00  1.00000000E+00
  3.34987264E-02  2.34800801E-01  8.13682958E-01  1.00000000E+00  1.00000000E+00
  1.00000000E+00  1.00000000E+00  3.34987264E-02  2.34800801E-01  8.13682958E-01
  1.00000000E+00  1.00000000E+00  1.00000000E+00  1.00000000E+00  3.34987264E-02
  2.34800801E-01  8.13682958E-01  1.00000000E+00  1.00000000E+00  1.00000000E+00
  1.00000000E+00
Coordinates of each shell                  R   N=          87
 -2.12802255E-25  1.37973726E-20  4.38012420E-08 -2.12802255E-25  1.37973726E-20
  4.38012420E-08 -2.12802255E-25  1.37973726E-20  4.38012420E-08 -2.12802255E-25
  1.37973726E-20  4.38012420E-08 -2.12802255E-25  1.37973726E-20  4.38012420E-08
 -2.12802255E-25  1.37973726E-20  4.38012420E-08 -2.12802255E-25  1.37973726E-20
  4.38012420E-08 -2.12802255E-25  1.37973726E-20  4.38012420E-08 -2.12802255E-25
  1.37973726E-20  4.38012420E-08  4.66078448E-17  1.95654889E+00 -6.91744453E-01
  4.66078448E-17  1.95654889E+00 -6.91744453E-01  4.66078448E-17  1.95654889E+00
 -6.91744453E-01  4.66078448E-17  1.95654889E+00 -6.91744453E-01  4.66078448E-17
  1.95654889E+00 -6.91744453E-01 -1.00779147E-17 -3.33066907E-16  2.07523310E+00
 -1.00779147E-17 -3.33066907E-16  2.07523310E+00 -1.00779147E-17 -3.33066907E-16
  2.07523310E+00 -1.00779147E-17 -3.33066907E-16  2.07523310E+00 -1.00779147E-17
 -3.33066907E-16  2.07523310E+00  1.69442104E+00 -9.78274445E-01 -6.91744453E-01
  1.69442104E+00 -9.78274445E-01 -6.91744453E-01  1.69442104E+00 -9.78274445E-01
 -6.91744453E-01  1.69442104E+00 -9.78274445E-01 -6.91744453E-01  1.69442104E+00
 -9.78274445E-01 -6.91744453E-01 -1.69442104E+00 -9.78274445E-01 -6.91744453E-01
 -1.69442104E+00 -9.78274445E-01 -6.91744453E-01 -1.69442104E+00 -9.78274445E-01
 -6.91744453E-01 -1.69442104E+00 -9.78274445E-01 -6.91744453E-01 -1.69442104E+00
 -9.78274445E-01 -6.91744453E-01
Constraint Structure                       R   N=          15
 -2.12802255E-25  1.37973726E-20  4.38012420E-08  4.66078448E-17  1.95654889E+00
 -6.91744453E-01 -1.00779147E-17 -3.33066907E-16  2.07523310E+00  1.69442104E+00
 -9.78274445E-01 -6.91744453E-01 -1.69442104E+00 -9.78274445E-01 -6.91744453E-01
Num ILSW                                   I              100
ILSW                                       I   N=         100
           0           0           0           0           2           0
           0           0           0           0           0          -1
           0           0           0           0           2           0
           0           0           1           0           1           0
           1           0           0           0           0           0
           0           0      100000           0          -1           0
           0           0           0           0           0           0
           0           0           0           1           1           0
           0           0           1           0           0           0
           0           0           4          41           0           0
           0           0           0           0           0           0
           0           0           0           0           0           0
           0           0           0           0           0           0
           0           0           0           0           0           0
           0           0           0           0           0           0
           0           0           0           0           0           0
           0           0           0           0
Num RLSW                                   I               41
RLSW                                       R   N=          41
  1.00000000E+00  1.00000000E+00  1.00000000E+00  1.00000000E+00  1.00000000E+00
  0.00000000E+00  0.00000000E+00  1.00000000E+00  0.00000000E+00  0.00000000E+00
  0.00000000E+00  0.00000000E+00  1.00000000E+00  0.00000000E+00  0.00000000E+00
  0.00000000E+00  0.00000000E+00  1.00000000E+00  0.00000000E+00  0.00000000E+00
  0.00000000E+00  0.00000000E+00  1.00000000E+00  0.00000000E+00  0.00000000E+00
  0.00000000E+00  0.00000000E+00  1.00000000E+00  0.00000000E+00  0.00000000E+00
  0.00000000E+00  0.00000000E+00  1.00000000E+00  0.00000000E+00  0.00000000E+00
  0.00000000E+00  0.00000000E+00  0.00000000E+00  1.00000000E+00  1.00000000E+00
  0.00000000E+00
MxBond                                     I                4
NBond                                      I   N=           5
           4           1           1           1           1
IBond                                      I   N=          20
           2           3           4           5           1           0
           0           0           1           0           0           0
           1           0           0           0           1           0
           0           0
RBond                                      R   N=          20
  1.00000000E+00  1.00000000E+00  1.00000000E+00  1.00000000E+00  1.00000000E+00
  0.00000000E+00  0.00000000E+00  0.00000000E+00  1.00000000E+00  0.00000000E+00
  0.00000000E+00  0.00000000E+00  1.00000000E+00  0.00000000E+00  0.00000000E+00
  0.00000000E+00  1.00000000E+00  0.00000000E+00  0.00000000E+00  0.00000000E+00
Virial Ratio                               R      2.003244044239975E+00
SCF Energy                                 R     -4.019942796495678E+01
MP2 Energy                                 R     -4.036772650602227E+01
Total Energy                               R     -4.036772650602227E+01
Post-SCF wavefunction norm                 R      1.454519668972968E+00
RMS Force                                  R      8.821181207507637E-08
RMS Density                                R      1.254796055924846E-10
Job Status                                 I                1
Nuclear derivative order                   I                3
External E-field                           R   N=          35
  0.00000000E+00  0.00000000E+00  0.00000000E+00  0.00000000E+00  0.00000000E+00
  0.00000000E+00  0.00000000E+00  0.00000000E+00  0.00000000E+00  0.00000000E+00
  0.00000000E+00  0.00000000E+00  0.00000000E+00  0.00000000E+00  0.00000000E+00
  0.00000000E+00  0.00000000E+00  0.00000000E+00  0.00000000E+00  0.00000000E+00
  0.00000000E+00  0.00000000E+00  0.00000000E+00  0.00000000E+00  0.00000000E+00
  0.00000000E+00  0.00000000E+00  0.00000000E+00  0.00000000E+00  0.00000000E+00
  0.00000000E+00  0.00000000E+00  0.00000000E+00  0.00000000E+00  0.00000000E+00
IOpCl                                      I                0
IROHF                                      I                0
Alpha Orbital Energies                     R   N=          59
 -1.12196778E+01 -9.39956057E-01 -5.43480772E-01 -5.41631696E-01 -5.39779412E-01
  3.69205664E-02  6.36816253E-02  6.37738401E-02  6.38665102E-02  1.45906756E-01
  1.46019443E-01  1.46131167E-01  1.74124409E-01  2.97937644E-01  2.98834553E-01
  2.99709516E-01  3.05899065E-01  3.05901439E-01  4.15523244E-01  4.39893158E-01
  4.40246257E-01  4.40611425E-01  5.21040723E-01  5.21391880E-01  5.21744827E-01
  5.67084163E-01  6.05705881E-01  6.06328675E-01  6.06947338E-01  6.66404911E-01
  6.66617106E-01  6.66860644E-01  7.33089151E-01  7.33091316E-01  9.80962748E-01
  9.83321516E-01  9.85637187E-01  1.11616381E+00  1.34455071E+00  1.34630898E+00
  1.34805228E+00  1.73971530E+00  1.73972261E+00  1.88401720E+00  1.88521604E+00
  1.88642204E+00  1.98564618E+00  2.19231279E+00  2.19872429E+00  2.20455000E+00
  2.28181586E+00  2.28210027E+00  2.28220628E+00  2.62057264E+00  2.62061497E+00
  2.80400810E+00  2.90064552E+00  2.90965474E+00  2.92041396E+00
Alpha MO coefficients                      R   N=        3481
  9.97573955E-01  2.06707766E-02 -2.93028103E-02 -8.56979497E-03  0.00000000E+00
 -5.17922188E-16  1.19355080E-10  0.00000000E+00  5.40512204E-15  8.90194670E-11
  0.00000000E+00 -9.17648886E-17 -2.09261119E-11  2.63042294E-10  0.00000000E+00
  4.67189599E-17  5.07314613E-16  0.00000000E+00  5.10536993E-11  0.00000000E+00
  6.58288517E-16 -4.09701105E-15  0.00000000E+00  4.24709860E-04  7.32058916E-03
  8.09370409E-04  0.00000000E+00  2.80068776E-04 -9.90192532E-05  0.00000000E+00
 -2.11521469E-03  7.47841211E-04  4.24709740E-04  7.32059115E-03  8.09370543E-04
  0.00000000E+00 -5.37682724E-17  2.97057804E-04  0.00000000E+00  4.30774581E-16
 -2.24352398E-03  4.24709860E-04  7.32058916E-03  8.09370409E-04  2.42546675E-04
 -1.40034388E-04 -9.90192532E-05 -1.83182965E-03  1.05760734E-03  7.47841211E-04
  4.24709860E-04  7.32058916E-03  8.09370409E-04 -2.42546675E-04 -1.40034388E-04
 -9.90192532E-05  1.83182965E-03  1.05760734E-03  7.47841211E-04 -1.86347861E-01
  3.73001117E-01  1.43734450E-01  4.44617998E-03  0.00000000E+00  1.51969832E-14
  5.10703367E-08  0.00000000E+00 -4.65646868E-13 -9.72381935E-08  0.00000000E+00
 -9.12991428E-14 -1.89143043E-08  4.47068369E-09  0.00000000E+00  1.74369867E-15
  1.20949182E-15  0.00000000E+00 -2.59819131E-08  0.00000000E+00  5.37605208E-14
  9.99009903E-14  0.00000000E+00  1.85762547E-01  4.49578583E-02  5.97314293E-04
  0.00000000E+00 -2.41648882E-02  8.54358038E-03  0.00000000E+00 -1.41698035E-02
  5.00978136E-03  1.85762651E-01  4.49580926E-02  5.97336352E-04  0.00000000E+00
  5.29767809E-15 -2.56307401E-02  0.00000000E+00 -1.86862453E-14 -1.50294184E-02
  1.85762547E-01  4.49578583E-02  5.97314293E-04 -2.09274070E-02  1.20824441E-02
  8.54358038E-03 -1.22714098E-02  7.08490175E-03  5.00978136E-03  1.85762547E-01
  4.49578583E-02  5.97314293E-04  2.09274070E-02  1.20824441E-02  8.54358038E-03
  1.22714098E-02  7.08490175E-03  5.00978136E-03  9.62437481E-09 -1.77140725E-08
 -1.70921567E-07 -5.62388726E-08  0.00000000E+00 -4.55306492E-09  4.25020448E-01
  0.00000000E+00 -1.23393199E-09  1.15223566E-01  0.00000000E+00  1.22182453E-10
 -1.13960769E-02  2.74667617E-02  0.00000000E+00  1.69878312E-10  2.40241982E-10
  0.00000000E+00 -2.67582127E-02  0.00000000E+00 -1.65552177E-10 -2.34111911E-10
  0.00000000E+00 -1.31627079E-01 -1.06813982E-01 -1.03434908E-02  0.00000000E+00
  1.10256732E-02  9.47720661E-03  0.00000000E+00  1.62504487E-02 -1.15760103E-02
  3.94881170E-01  3.20442001E-01  3.10304900E-02  0.00000000E+00 -1.43287697E-10
 -2.17081033E-02  0.00000000E+00  6.24741292E-11 -5.75392380E-02 -1.31627073E-01
 -1.06813977E-01 -1.03434904E-02  9.54851279E-03 -5.51283657E-03  9.47720679E-03
  1.40733007E-02 -8.12522389E-03 -1.15760100E-02 -1.31627073E-01 -1.06813977E-01
 -1.03434904E-02 -9.54851279E-03 -5.51283657E-03  9.47720679E-03 -1.40733007E-02
 -8.12522389E-03 -1.15760100E-02  0.00000000E+00  0.00000000E+00  0.00000000E+00
  0.00000000E+00  4.25020408E-01  0.00000000E+00  0.00000000E+00  1.15223709E-01
  0.00000000E+00  0.00000000E+00 -1.13960430E-02  0.00000000E+00  0.00000000E+00
  0.00000000E+00 -1.58579377E-02  0.00000000E+00  0.00000000E+00 -2.24265127E-02
  0.00000000E+00  1.54488459E-02  0.00000000E+00  0.00000000E+00  2.18479645E-02
  0.00000000E+00  0.00000000E+00  0.00000000E+00  1.33753697E-02  0.00000000E+00
  0.00000000E+00 -5.83060835E-03  0.00000000E+00  0.00000000E+00  0.00000000E+00
  0.00000000E+00  0.00000000E+00  1.33753735E-02  0.00000000E+00  0.00000000E+00
 -5.83061091E-03  0.00000000E+00  0.00000000E+00  3.22419113E-01  2.61639637E-01
  2.53362642E-02 -1.00136134E-02  1.35036357E-02  9.54851293E-03 -4.03029890E-02
  1.99026383E-02  1.40732916E-02 -3.22419113E-01 -2.61639637E-01 -2.53362642E-02
 -1.00136134E-02 -1.35036357E-02 -9.54851293E-03 -4.03029890E-02 -1.99026383E-02
 -1.40732916E-02 -2.47851086E-15 -2.50606042E-14  2.73928918E-13  2.66064952E-13
  0.00000000E+00  4.25020408E-01  4.55305841E-09  0.00000000E+00  1.15223709E-01
  1.23406515E-09  0.00000000E+00 -1.13960430E-02 -1.22245842E-10  2.94235622E-10
  0.00000000E+00 -1.58579377E-02 -2.24265127E-02  0.00000000E+00 -2.86696385E-10
  0.00000000E+00  1.54488459E-02  2.18479645E-02  0.00000000E+00  3.72297522E-01
  3.02115429E-01  2.92557978E-02  0.00000000E+00 -1.78099410E-02  1.10256731E-02
  0.00000000E+00 -5.17937824E-02  1.62504373E-02  4.23019659E-09  3.43314192E-09
  3.32645566E-10  0.00000000E+00  1.33753735E-02 -2.32548967E-10  0.00000000E+00
 -5.83061091E-03 -6.16536214E-10 -1.86148763E-01 -1.51057716E-01 -1.46278991E-02
  1.35036358E-02  5.57904195E-03 -5.51283641E-03  1.99026384E-02 -1.73214020E-02
 -8.12521884E-03 -1.86148763E-01 -1.51057716E-01 -1.46278991E-02 -1.35036358E-02
  5.57904195E-03 -5.51283641E-03 -1.99026384E-02 -1.73214020E-02 -8.12521884E-03
 -3.87638045E-02  2.96911853E-02  1.01388448E+00  3.47021844E+00  0.00000000E+00
 -5.74373538E-14 -1.22890809E-08  0.00000000E+00  2.46826429E-12  1.51758909E-08
  0.00000000E+00  1.32486533E-12  1.05234927E-08  1.48942635E-09  0.00000000E+00
  1.71748764E-17  6.47723270E-15  0.00000000E+00 -2.36251093E-09  0.00000000E+00
 -3.03015844E-13 -4.98767323E-13  0.00000000E+00  5.15048757E-03 -5.24166467E-01
 -8.79398799E-01  0.00000000E+00 -8.00398699E-04  2.82982892E-04  0.00000000E+00
  1.00286948E-01 -3.54567848E-02  5.15048918E-03 -5.24166641E-01 -8.79399152E-01
  0.00000000E+00 -1.35664484E-14 -8.48949654E-04  0.00000000E+00  7.25991343E-14
  1.06370400E-01  5.15048757E-03 -5.24166467E-01 -8.79398799E-01 -6.93165607E-04
  4.00199350E-04  2.82982892E-04  8.68510444E-02 -5.01434739E-02 -3.54567848E-02
  5.15048757E-03 -5.24166467E-01 -8.79398799E-01  6.93165607E-04  4.00199350E-04
  2.82982892E-04 -8.68510444E-02 -5.01434739E-02 -3.54567848E-02 -1.79541365E-09
  3.57166659E-09  1.10435332E-08 -2.73555412E-07  0.00000000E+00 -9.36058876E-07
 -7.04818322E-02  0.00000000E+00 -1.71689790E-06 -1.29275208E-01  0.00000000E+00
 -1.99013356E-05 -1.49849781E+00 -2.85071264E-04  0.00000000E+00  2.18585973E-09
  3.09124857E-09  0.00000000E+00  3.00439161E-02  0.00000000E+00 -2.30366437E-07
 -3.25786835E-07  0.00000000E+00  9.39410855E-03 -6.88348633E-03 -1.65518625E+00
  0.00000000E+00 -5.03470214E-03 -3.64586136E-03  0.00000000E+00  3.83659091E-02
  6.36417675E-02 -2.81834012E-02  2.06513005E-02  4.96574536E+00  0.00000000E+00
 -7.20601652E-08  1.05948225E-02  0.00000000E+00  1.02535868E-06 -4.48750889E-02
  9.39463789E-03 -6.88387424E-03 -1.65527951E+00 -4.36036323E-03  2.51738483E-03
 -3.64576106E-03  3.32268361E-02 -1.91824974E-02  6.36410032E-02  9.39463789E-03
 -6.88387424E-03 -1.65527951E+00  4.36036323E-03  2.51738483E-03 -3.64576106E-03
 -3.32268361E-02 -1.91824974E-02  6.36410032E-02  3.45599130E-14  5.75208279E-14
 -1.50675774E-12  2.74187395E-12  0.00000000E+00 -7.04818447E-02  9.36059004E-07
  0.00000000E+00 -1.29275283E-01  1.71688422E-06  0.00000000E+00 -1.49849765E+00
  1.99013289E-05  3.78598805E-09  0.00000000E+00  1.64585997E-04  2.32758545E-04
  0.00000000E+00 -3.99008979E-07  0.00000000E+00 -1.73458744E-02 -2.45307428E-02
  0.00000000E+00 -2.65716785E-02  1.94703475E-02  4.68177065E+00  0.00000000E+00
  8.81481500E-03 -5.03477111E-03  0.00000000E+00 -3.13110937E-02  3.83654933E-02
  3.74299702E-07 -2.74264595E-07 -6.59493374E-05  0.00000000E+00 -5.42587269E-03
 -1.40708306E-07  0.00000000E+00  7.72058148E-02  5.95978795E-07  1.32856521E-02
 -9.73503660E-03 -2.34085235E+00 -6.16631145E-03 -1.86575032E-03  2.51745818E-03
  4.69885251E-02  5.00769476E-02 -1.91840145E-02  1.32856521E-02 -9.73503660E-03
 -2.34085235E+00  6.16631145E-03 -1.86575032E-03  2.51745818E-03 -4.69885251E-02
  5.00769476E-02 -1.91840145E-02  0.00000000E+00  0.00000000E+00  0.00000000E+00
  0.00000000E+00 -7.04818447E-02  0.00000000E+00  0.00000000E+00 -1.29275283E-01
  0.00000000E+00  0.00000000E+00 -1.49849765E+00  0.00000000E+00  0.00000000E+00
  0.00000000E+00  1.64585997E-04  0.00000000E+00  0.00000000E+00  2.32758545E-04
  0.00000000E+00 -1.73458744E-02  0.00000000E+00  0.00000000E+00 -2.45307428E-02
  0.00000000E+00  0.00000000E+00  0.00000000E+00 -5.42587190E-03  0.00000000E+00
  0.00000000E+00  7.72057852E-02  0.00000000E+00  0.00000000E+00  0.00000000E+00
  0.00000000E+00  0.00000000E+00 -5.42587269E-03  0.00000000E+00  0.00000000E+00
  7.72058148E-02  0.00000000E+00  0.00000000E+00 -2.30116405E-02  1.68617363E-02
  4.05451328E+00  5.25459312E-03 -6.16636936E-03 -4.36028161E-03 -4.18149183E-03
  4.69889663E-02  3.32262238E-02  2.30116405E-02 -1.68617363E-02 -4.05451328E+00
  5.25459312E-03  6.16636936E-03  4.36028161E-03 -4.18149183E-03 -4.69889663E-02
 -3.32262238E-02 -2.35254024E-13  1.84637837E-12 -2.76779328E-11 -6.47620653E-11
  0.00000000E+00  8.21088243E-02  1.89974120E-06  0.00000000E+00 -1.51875375E+00
 -3.51392017E-05  0.00000000E+00 -3.97658638E+00 -9.20057530E-05  2.27223402E-07
  0.00000000E+00 -5.67006359E-03 -8.01868076E-03  0.00000000E+00 -7.80943513E-06
  0.00000000E+00  1.94874271E-01  2.75593869E-01  0.00000000E+00  1.17707242E-01
  3.19477834E+00  5.34224464E+00  0.00000000E+00 -1.91711499E-02  4.88258380E-03
  0.00000000E+00 -6.19700639E-01  2.66967784E-01  2.88860107E-06  7.84016516E-05
  1.31101680E-04  0.00000000E+00 -5.36076327E-03 -4.83504266E-07  0.00000000E+00
  1.35389444E-01 -1.65218949E-05 -5.88550651E-02 -1.59742837E+00 -2.67118787E+00
  5.98021701E-03 -8.81344913E-03 -2.44153786E-03  3.26971602E-01 -5.33877422E-02
 -1.33482469E-01 -5.88550651E-02 -1.59742837E+00 -2.67118787E+00 -5.98021701E-03
 -8.81344913E-03 -2.44153786E-03 -3.26971602E-01 -5.33877422E-02 -1.33482469E-01
  0.00000000E+00  0.00000000E+00  0.00000000E+00  0.00000000E+00  8.21088244E-02
  0.00000000E+00  0.00000000E+00 -1.51875375E+00  0.00000000E+00  0.00000000E+00
 -3.97658638E+00  0.00000000E+00  0.00000000E+00  0.00000000E+00 -5.67006359E-03
  0.00000000E+00  0.00000000E+00 -8.01868076E-03  0.00000000E+00  1.94874271E-01
  0.00000000E+00  0.00000000E+00  2.75593869E-01  0.00000000E+00  0.00000000E+00
  0.00000000E+00 -5.36076923E-03  0.00000000E+00  0.00000000E+00  1.35389400E-01
  0.00000000E+00  0.00000000E+00  0.00000000E+00  0.00000000E+00  0.00000000E+00
 -5.36076327E-03  0.00000000E+00  0.00000000E+00  1.35389444E-01  0.00000000E+00
  0.00000000E+00  1.01938295E-01  2.76678184E+00  4.62655742E+00 -1.57186395E-02
  5.98011918E-03  4.22858362E-03 -4.30932762E-01  3.26966253E-01  2.31200061E-01
 -1.01938295E-01 -2.76678184E+00 -4.62655742E+00 -1.57186395E-02 -5.98011918E-03
 -4.22858362E-03 -4.30932762E-01 -3.26966253E-01 -2.31200061E-01 -6.82652564E-09
  4.20644471E-08 -8.14921214E-07 -1.71540323E-06  0.00000000E+00 -1.89974077E-06
  8.21088345E-02  0.00000000E+00  3.51391952E-05 -1.51875398E+00  0.00000000E+00
  9.20057451E-05 -3.97658676E+00  9.82083879E-03  0.00000000E+00  1.31187539E-07
  1.85527151E-07  0.00000000E+00 -3.37532185E-01  0.00000000E+00 -4.50877921E-06
 -6.37637676E-06  0.00000000E+00 -4.16188573E-02 -1.12960787E+00 -1.88890804E+00
  0.00000000E+00  4.88318593E-03 -7.08719216E-03  0.00000000E+00  2.66981186E-01
  4.09961493E-02  1.24848424E-01  3.38860322E+00  5.66635437E+00  0.00000000E+00
  1.24031311E-07 -2.08975643E-02  0.00000000E+00 -3.13248773E-06 -7.14094034E-01
 -4.16147722E-02 -1.12949700E+00 -1.88872263E+00  4.22844057E-03 -2.44116727E-03
 -7.08702271E-03  2.31192508E-01 -1.33482189E-01  4.10054145E-02 -4.16147722E-02
 -1.12949700E+00 -1.88872263E+00 -4.22844057E-03 -2.44116727E-03 -7.08702271E-03
 -2.31192508E-01 -1.33482189E-01  4.10054145E-02  4.50633077E-02 -2.88795961E-01
  2.47901052E+00  8.15754652E+00  0.00000000E+00  8.81685454E-14  5.75898369E-08
  0.00000000E+00  6.92032145E-12 -7.73043660E-08  0.00000000E+00 -9.13496216E-12
 -5.71893079E-07  1.52840505E-09  0.00000000E+00 -3.05881388E-14 -2.52399319E-14
  0.00000000E+00 -5.36766410E-08  0.00000000E+00 -9.23084121E-13 -1.51826806E-12
  0.00000000E+00  1.15854011E-03 -1.63221928E+00 -1.18848879E+00  0.00000000E+00
  2.58318471E-02 -9.13293674E-03  0.00000000E+00  3.75602907E-01 -1.32795617E-01
  1.15851506E-03 -1.63221927E+00 -1.18848802E+00  0.00000000E+00 -8.64098933E-14
  2.73988090E-02  0.00000000E+00  1.00005154E-12  3.98386973E-01  1.15854011E-03
 -1.63221928E+00 -1.18848879E+00  2.23710358E-02 -1.29159235E-02 -9.13293674E-03
  3.25281659E-01 -1.87801453E-01 -1.32795617E-01  1.15854011E-03 -1.63221928E+00
 -1.18848879E+00 -2.23710358E-02 -1.29159235E-02 -9.13293674E-03 -3.25281659E-01
 -1.87801453E-01 -1.32795617E-01 -2.18975997E-15  2.75545964E-13 -3.20951786E-12
 -3.36093496E-13  0.00000000E+00  2.81265058E-01 -8.08556437E-08  0.00000000E+00
  6.94512607E-01 -1.99655825E-07  0.00000000E+00 -1.04082376E+00  2.99206460E-07
  8.59225650E-09  0.00000000E+00  1.72564759E-02  2.44043425E-02  0.00000000E+00
 -8.20331039E-08  0.00000000E+00 -1.64751448E-01 -2.32993803E-01  0.00000000E+00
 -1.03244712E-01 -1.73181704E+00  2.37005964E+00  0.00000000E+00  4.21975659E-03
 -1.38321921E-03  0.00000000E+00 -1.48126635E-01  1.88661686E-01  3.14803720E-08
  5.28055064E-07 -7.22652827E-07  0.00000000E+00  3.07424347E-04 -1.35364643E-09
  0.00000000E+00  3.85489744E-01  6.17539711E-08  5.16223404E-02  8.65908256E-01
 -1.18502946E+00 -1.69408912E-03  1.28550696E-03  6.91609260E-04  2.31062618E-01
  2.52085723E-01 -9.43309804E-02  5.16223404E-02  8.65908256E-01 -1.18502946E+00
  1.69408912E-03  1.28550696E-03  6.91609260E-04 -2.31062618E-01  2.52085723E-01
 -9.43309804E-02  0.00000000E+00  0.00000000E+00  0.00000000E+00  0.00000000E+00
  2.81265058E-01  0.00000000E+00  0.00000000E+00  6.94512607E-01  0.00000000E+00
  0.00000000E+00 -1.04082376E+00  0.00000000E+00  0.00000000E+00  0.00000000E+00
  1.72564759E-02  0.00000000E+00  0.00000000E+00  2.44043425E-02  0.00000000E+00
 -1.64751448E-01  0.00000000E+00  0.00000000E+00 -2.32993803E-01  0.00000000E+00
  0.00000000E+00  0.00000000E+00  3.07424154E-04  0.00000000E+00  0.00000000E+00
  3.85489788E-01  0.00000000E+00  0.00000000E+00  0.00000000E+00  0.00000000E+00
  0.00000000E+00  3.07424347E-04  0.00000000E+00  0.00000000E+00  3.85489744E-01
  0.00000000E+00  0.00000000E+00 -8.94125345E-02 -1.49979740E+00  2.05253164E+00
  3.24167318E-03 -1.69408947E-03 -1.19790277E-03 -1.47224883E-02  2.31062665E-01
  1.63385892E-01  8.94125345E-02  1.49979740E+00 -2.05253164E+00  3.24167318E-03
  1.69408947E-03  1.19790277E-03 -1.47224883E-02 -2.31062665E-01 -1.63385892E-01
  2.08294136E-08 -2.22774172E-08 -3.13515553E-07 -1.72862106E-06  0.00000000E+00
  8.08557557E-08  2.81264995E-01  0.00000000E+00  1.99640265E-07  6.94513665E-01
  0.00000000E+00 -2.99208049E-07 -1.04082347E+00 -2.98890820E-02  0.00000000E+00
  4.96076232E-09  7.01563705E-09  0.00000000E+00  2.85358221E-01  0.00000000E+00
 -4.73592743E-08 -6.69770521E-08  0.00000000E+00  3.65025074E-02  6.12290392E-01
 -8.37941687E-01  0.00000000E+00 -1.38322554E-03  7.96458408E-04  0.00000000E+00
  1.88661652E-01  3.18787904E-01 -1.09507492E-01 -1.83687100E+00  2.51382785E+00
  0.00000000E+00  8.84445096E-11  4.70880126E-03  0.00000000E+00  1.10816338E-07
 -2.14828078E-01  3.65025519E-02  6.12291138E-01 -8.37942709E-01 -1.19790999E-03
  6.91613746E-04  7.96459005E-04  1.63385887E-01 -9.43307749E-02  3.18787823E-01
  3.65025519E-02  6.12291138E-01 -8.37942709E-01  1.19790999E-03  6.91613746E-04
  7.96459005E-04 -1.63385887E-01 -9.43307749E-02  3.18787823E-01 -1.64384826E-15
 -2.09297831E-14  4.78649663E-13  4.37659600E-13  0.00000000E+00  2.31390556E-08
  1.03476059E-13  0.00000000E+00 -5.97840517E-08 -1.88034154E-12  0.00000000E+00