Water freq                                                              
Freq      RMP2-FC                                                     Aug-CC-pVDZ         
Number of atoms                            I                3
Info1-9                                    I   N=           9
          27          25        1002           0           0         100
           6           2           1
Full Title                                 C   N=           1
Water freq  
Route                                      C   N=           6
#MP2/aug-cc-pvdz #Density=current #Opt=VeryTight #Frequency=
Anharmonic  
Charge                                     I                0
Multiplicity                               I                1
Number of electrons                        I               10
Number of alpha electrons                  I                5
Number of beta electrons                   I                5
Number of basis functions                  I               41
Number of independent functions            I               41
Number of point charges in /Mol/           I                0
Number of translation vectors              I                0
Atomic numbers                             I   N=           3
           8           1           1
Nuclear charges                            R   N=           3
  8.00000000E+00  1.00000000E+00  1.00000000E+00
Current cartesian coordinates              R   N=           9
 -2.46519033E-32  0.00000000E+00  2.25076601E-01 -3.94430453E-31  1.43714409E+00
 -9.00306406E-01 -1.75999391E-16 -1.43714409E+00 -9.00306406E-01
Number of symbols in /Mol/                 I                0
Force Field                                I                0
Atom Types                                 C   N=           3
                                    
Int Atom Types                             I   N=           3
           0           0           0
MM charges                                 R   N=           3
  0.00000000E+00  0.00000000E+00  0.00000000E+00
Integer atomic weights                     I   N=           3
          16           1           2
Real atomic weights                        R   N=           3
  1.59949146E+01  1.00782504E+00  2.01410179E+00
Atom fragment info                         I   N=           3
           0           0           0
Atom residue num                           I   N=           3
           0           0           0
Nuclear spins                              I   N=           3
           0           1           2
Nuclear ZEff                               R   N=           3
 -5.60000000E+00 -1.00000000E+00 -1.00000000E+00
Nuclear ZNuc                               R   N=           3
  8.00000000E+00  1.00000000E+00  1.00000000E+00
Nuclear QMom                               R   N=           3
  0.00000000E+00  0.00000000E+00  2.86000000E-01
Nuclear GFac                               R   N=           3
  0.00000000E+00  2.79284600E+00  8.57438000E-01
MicOpt                                     I   N=           3
          -1          -1          -1
Number of residues                         I                0
Number of secondary structures             I                0
Redundant internal dimensions              I   N=           4
           3           2           1           0
Redundant internal coordinate indices      I   N=          12
           1           2           0           0           1           3
           0           0           2           1           3           0
Redundant internal coordinates             R   N=           3
  1.82534108E+00  1.82534108E+00  1.81292951E+00
ZRed-IntVec                                I   N=           3
           0           0           0
ZRed-FPVec                                 R   N=           3
  0.00000000E+00  0.00000000E+00  0.00000000E+00
ZRed-Constraint1                           R   N=           3
  1.82534108E+00  1.82534108E+00  1.81292951E+00
ZRed-Constraint2                           R   N=           3
  1.82534108E+00  1.82534108E+00  1.81292951E+00
SymInf integers                            I   N=          26
           2           4           1           1           1          -1
          -1           1          -1           1           1           1
          -1           1           0           0           0           0
           0           0           0           0           0           0
           0           0
RotTr to input orientation                 R   N=          12
  9.88088208E-17 -1.00000000E+00 -8.92581255E-16 -6.16532999E-01 -7.63674066E-16
  7.87329068E-01 -7.87329068E-01  4.72510741E-16 -6.16532999E-01  1.77209351E-01
  3.51998782E-17  1.38767152E-01
Number of contracted shells                I               19
Number of primitive shells                 I               37
Pure/Cartesian d shells                    I                0
Pure/Cartesian f shells                    I                0
Highest angular momentum                   I                2
Largest degree of contraction              I                7
Shell types                                I   N=          19
           0           0           0           0           1           1
           1          -2          -2           0           0           0
           1           1           0           0           0           1
           1
Number of primitives per shell             I   N=          19
           7           7           1           1           3           1
           1           1           1           3           1           1
           1           1           3           1           1           1
           1
Shell to atom map                          I   N=          19
           1           1           1           1           1           1
           1           1           1           2           2           2
           2           2           3           3           3           3
           3
Primitive exponents                        R   N=          37
  1.17200000E+04  1.75900000E+03  4.00800000E+02  1.13700000E+02  3.70300000E+01
  1.32700000E+01  5.02500000E+00  1.17200000E+04  4.00800000E+02  1.13700000E+02
  3.70300000E+01  1.32700000E+01  5.02500000E+00  1.01300000E+00  3.02300000E-01
  7.89600000E-02  1.77000000E+01  3.85400000E+00  1.04600000E+00  2.75300000E-01
  6.85600000E-02  1.18500000E+00  3.32000000E-01  1.30100000E+01  1.96200000E+00
  4.44600000E-01  1.22000000E-01  2.97400000E-02  7.27000000E-01  1.41000000E-01
  1.30100000E+01  1.96200000E+00  4.44600000E-01  1.22000000E-01  2.97400000E-02
  7.27000000E-01  1.41000000E-01
Contraction coefficients                   R   N=          37
  7.11864434E-04  5.48520199E-03  2.79099296E-02  1.05133208E-01  2.84002490E-01
  4.51673946E-01  2.73208126E-01  7.69030046E-06  3.13484579E-04 -2.96614853E-03
 -1.08753543E-02 -1.20753817E-01 -1.06275264E-01  1.09597548E+00  1.00000000E+00
  1.00000000E+00  6.26791663E-02  3.33536566E-01  7.41239642E-01  1.00000000E+00
  1.00000000E+00  1.00000000E+00  1.00000000E+00  3.34987264E-02  2.34800801E-01
  8.13682958E-01  1.00000000E+00  1.00000000E+00  1.00000000E+00  1.00000000E+00
  3.34987264E-02  2.34800801E-01  8.13682958E-01  1.00000000E+00  1.00000000E+00
  1.00000000E+00  1.00000000E+00
Coordinates of each shell                  R   N=          57
 -2.46519033E-32  0.00000000E+00  2.25076601E-01 -2.46519033E-32  0.00000000E+00
  2.25076601E-01 -2.46519033E-32  0.00000000E+00  2.25076601E-01 -2.46519033E-32
  0.00000000E+00  2.25076601E-01 -2.46519033E-32  0.00000000E+00  2.25076601E-01
 -2.46519033E-32  0.00000000E+00  2.25076601E-01 -2.46519033E-32  0.00000000E+00
  2.25076601E-01 -2.46519033E-32  0.00000000E+00  2.25076601E-01 -2.46519033E-32
  0.00000000E+00  2.25076601E-01 -1.97215226E-31  1.43714409E+00 -9.00306406E-01
 -1.97215226E-31  1.43714409E+00 -9.00306406E-01 -1.97215226E-31  1.43714409E+00
 -9.00306406E-01 -1.97215226E-31  1.43714409E+00 -9.00306406E-01 -1.97215226E-31
  1.43714409E+00 -9.00306406E-01 -1.75999391E-16 -1.43714409E+00 -9.00306406E-01
 -1.75999391E-16 -1.43714409E+00 -9.00306406E-01 -1.75999391E-16 -1.43714409E+00
 -9.00306406E-01 -1.75999391E-16 -1.43714409E+00 -9.00306406E-01 -1.75999391E-16
 -1.43714409E+00 -9.00306406E-01
Num ILSW                                   I              100
ILSW                                       I   N=         100
           0           0           0           1           2           0
           0           0           0           0           0          -1
           5           0           0           0           2           0
           0           0           1           0           1           0
           1           0           0           0           0           0
           0           0      100000           0          -1           0
           0           0           0           0           0           0
           0           0           0           1           1           0
           0 -2000000000           1           0           0           0
           0           0           4          52           0           0
           0           0           0           0           0           0
           0           0           0           0           4           1
           0           0           0           0           0           0
           0           0           0           0           0           0
           0           0           0           0           0           0
           0           0           0           0           0           0
           0           0           0           0
Num RLSW                                   I               52
RLSW                                       R   N=          52
  1.00000000E+00  1.00000000E+00  1.00000000E+00  1.00000000E+00  1.00000000E+00
  0.00000000E+00  0.00000000E+00  1.00000000E+00  0.00000000E+00  0.00000000E+00
  0.00000000E+00  0.00000000E+00  1.00000000E+00  0.00000000E+00  0.00000000E+00
  0.00000000E+00  0.00000000E+00  1.00000000E+00  0.00000000E+00  0.00000000E+00
  0.00000000E+00  0.00000000E+00  1.00000000E+00  0.00000000E+00  0.00000000E+00
  0.00000000E+00  0.00000000E+00  1.00000000E+00  0.00000000E+00  0.00000000E+00
  0.00000000E+00  0.00000000E+00  1.00000000E+00  0.00000000E+00  0.00000000E+00
  0.00000000E+00  0.00000000E+00  0.00000000E+00  1.00000000E+00  1.00000000E+00
  0.00000000E+00  1.00000000E+00  0.00000000E+00  0.00000000E+00  0.00000000E+00
  0.00000000E+00  0.00000000E+00  0.00000000E+00  0.00000000E+00  0.00000000E+00
  0.00000000E+00  0.00000000E+00
MxBond                                     I                2
NBond                                      I   N=           3
           2           1           1
IBond                                      I   N=           6
           2           3           1           0           1           0
RBond                                      R   N=           6
  1.00000000E+00  1.00000000E+00  1.00000000E+00  0.00000000E+00  1.00000000E+00
  0.00000000E+00
Virial Ratio                               R      2.001931834611852E+00
SCF Energy                                 R     -7.604076138981830E+01
MP2 Energy                                 R     -7.626090976544164E+01
Total Energy                               R     -7.626090976544164E+01
Post-SCF wavefunction norm                 R      1.455800043919382E+00
RMS Force                                  R      4.090936552046062E-08
RMS Density                                R      3.197289244052946E-10
NImag                                      I                0
Job Status                                 I                1
Nuclear derivative order                   I                3
External E-field                           R   N=          35
  0.00000000E+00  0.00000000E+00  0.00000000E+00  0.00000000E+00  0.00000000E+00
  0.00000000E+00  0.00000000E+00  0.00000000E+00  0.00000000E+00  0.00000000E+00
  0.00000000E+00  0.00000000E+00  0.00000000E+00  0.00000000E+00  0.00000000E+00
  0.00000000E+00  0.00000000E+00  0.00000000E+00  0.00000000E+00  0.00000000E+00
  0.00000000E+00  0.00000000E+00  0.00000000E+00  0.00000000E+00  0.00000000E+00
  0.00000000E+00  0.00000000E+00  0.00000000E+00  0.00000000E+00  0.00000000E+00
  0.00000000E+00  0.00000000E+00  0.00000000E+00  0.00000000E+00  0.00000000E+00
IOpCl                                      I                0
IROHF                                      I                0
Alpha Orbital Energies                     R   N=          41
 -2.05781903E+01 -1.35513691E+00 -7.15949831E-01 -5.86148153E-01 -5.09308699E-01
  3.53164236E-02  5.79646148E-02  1.73984667E-01  1.96936493E-01  2.22440815E-01
  2.31754733E-01  2.89322661E-01  3.31937696E-01  3.85867335E-01  4.02313426E-01
  4.32315655E-01  5.39274557E-01  6.47308170E-01  6.58308839E-01  8.08460260E-01
  9.30711927E-01  1.10199274E+00  1.11638718E+00  1.14850800E+00  1.30337962E+00
  1.46485555E+00  1.48126155E+00  1.58337883E+00  2.00233932E+00  2.00757903E+00
  2.10874931E+00  2.35957695E+00  2.47539692E+00  2.62149839E+00  2.71268962E+00
  2.97106173E+00  3.67321763E+00  3.69028205E+00  3.70200487E+00  4.01821574E+00
  4.30282568E+00
Alpha MO coefficients                      R   N=        1681
  9.97196325E-01  1.62715701E-02 -7.25014697E-03 -4.48457975E-03  0.00000000E+00
  0.00000000E+00 -1.63039165E-03  0.00000000E+00  0.00000000E+00  1.54887848E-03
  0.00000000E+00  0.00000000E+00  6.73100533E-04  2.30902069E-06  0.00000000E+00
  0.00000000E+00 -9.26441368E-05  0.00000000E+00  9.24319366E-06  0.00000000E+00
  0.00000000E+00  2.76134771E-04  0.00000000E+00  3.54715071E-04  3.57162405E-03
  3.17317535E-04  0.00000000E+00  3.35349692E-04 -2.78286216E-04  0.00000000E+00
 -1.18061886E-03  1.01682158E-03  3.54715071E-04  3.57162405E-03  3.17317535E-04
  0.00000000E+00 -3.35349692E-04 -2.78286216E-04  0.00000000E+00  1.18061886E-03
  1.01682158E-03 -2.08888386E-01  4.48758562E-01  3.81202771E-01  5.89820220E-02
  0.00000000E+00  0.00000000E+00 -7.73639658E-02  0.00000000E+00  0.00000000E+00
  1.70088407E-02  0.00000000E+00  0.00000000E+00 -1.15032656E-02  2.82299604E-03
  0.00000000E+00  0.00000000E+00 -6.64187152E-03  0.00000000E+00 -5.94278402E-03
  0.00000000E+00  0.00000000E+00  1.89399661E-02  0.00000000E+00  2.02467172E-01
 -2.62351075E-02 -2.05362469E-03  0.00000000E+00 -3.65660667E-02  2.23403143E-02
  0.00000000E+00  5.11197895E-03 -8.07248535E-03  2.02467172E-01 -2.62351075E-02
 -2.05362469E-03  0.00000000E+00  3.65660667E-02  2.23403143E-02  0.00000000E+00
 -5.11197895E-03 -8.07248535E-03  0.00000000E+00  0.00000000E+00  0.00000000E+00
  0.00000000E+00  0.00000000E+00  4.98906843E-01  0.00000000E+00  0.00000000E+00
  1.97970075E-01  0.00000000E+00  0.00000000E+00  1.96751628E-02  0.00000000E+00
  0.00000000E+00  0.00000000E+00 -2.84017831E-02  0.00000000E+00  0.00000000E+00
  0.00000000E+00  0.00000000E+00  3.01091426E-02  0.00000000E+00  0.00000000E+00
  3.46926125E-01  8.03093198E-02 -4.74274584E-03  0.00000000E+00 -2.57734683E-02
  3.47523428E-02  0.00000000E+00 -3.39198205E-03  9.81425736E-04 -3.46926125E-01
 -8.03093198E-02  4.74274584E-03  0.00000000E+00 -2.57734683E-02 -3.47523428E-02
  0.00000000E+00 -3.39198205E-03 -9.81425736E-04 -6.74268155E-02  1.51967937E-01
  3.16440203E-01  7.61939923E-02  0.00000000E+00  0.00000000E+00  5.47363058E-01
  0.00000000E+00  0.00000000E+00  3.23900774E-01  0.00000000E+00  0.00000000E+00
  3.88140102E-02 -1.45664162E-02  0.00000000E+00  0.00000000E+00  4.37942799E-03
  0.00000000E+00 -1.59693243E-02  0.00000000E+00  0.00000000E+00 -1.11819969E-02
  0.00000000E+00 -2.12572819E-01 -5.92314442E-02 -3.58066715E-03  0.00000000E+00
  3.08689060E-02 -1.29041423E-03  0.00000000E+00  2.01245703E-03  1.32970975E-02
 -2.12572819E-01 -5.92314442E-02 -3.58066715E-03  0.00000000E+00 -3.08689060E-02
 -1.29041423E-03  0.00000000E+00 -2.01245703E-03  1.32970975E-02  0.00000000E+00
  0.00000000E+00  0.00000000E+00  0.00000000E+00  6.28787964E-01  0.00000000E+00
  0.00000000E+00  4.50508638E-01  0.00000000E+00  0.00000000E+00  6.89252706E-02
  0.00000000E+00  0.00000000E+00  0.00000000E+00 -1.37975008E-02  0.00000000E+00
  0.00000000E+00  0.00000000E+00  0.00000000E+00 -1.93901772E-02  0.00000000E+00
  0.00000000E+00  0.00000000E+00  0.00000000E+00  0.00000000E+00  0.00000000E+00
  2.58338787E-02  0.00000000E+00  0.00000000E+00  1.59767080E-02  0.00000000E+00
  0.00000000E+00  0.00000000E+00  0.00000000E+00  0.00000000E+00  2.58338787E-02
  0.00000000E+00  0.00000000E+00  1.59767080E-02  0.00000000E+00  0.00000000E+00
 -2.79301090E-02  5.33354617E-02  2.18599470E-01  1.54643285E+00  0.00000000E+00
  0.00000000E+00 -6.10327412E-02  0.00000000E+00  0.00000000E+00 -1.33530640E-01
  0.00000000E+00  0.00000000E+00 -2.15796767E-01  2.59075884E-03  0.00000000E+00
  0.00000000E+00 -4.99070856E-05  0.00000000E+00 -1.41344881E-03  0.00000000E+00
  0.00000000E+00 -1.04312550E-02  0.00000000E+00 -1.96825964E-02 -4.73175885E-01
 -8.34072576E-01  0.00000000E+00 -4.65142134E-03  2.32972463E-03  0.00000000E+00
  8.19827154E-02 -7.71110664E-02 -1.96825964E-02 -4.73175885E-01 -8.34072576E-01
  0.00000000E+00  4.65142134E-03  2.32972463E-03  0.00000000E+00 -8.19827154E-02
 -7.71110664E-02  0.00000000E+00  0.00000000E+00  0.00000000E+00  0.00000000E+00
  0.00000000E+00 -6.71787843E-02  0.00000000E+00  0.00000000E+00 -1.37945579E-01
  0.00000000E+00  0.00000000E+00 -8.22341883E-01  0.00000000E+00  0.00000000E+00
  0.00000000E+00  9.69580449E-04  0.00000000E+00  0.00000000E+00  0.00000000E+00
  0.00000000E+00  1.90572676E-02  0.00000000E+00  0.00000000E+00 -5.54099259E-04
  5.39546700E-01  2.94882143E+00  0.00000000E+00  7.26519378E-04 -4.23042345E-03
  0.00000000E+00 -1.01757861E-01  1.27975022E-01  5.54099259E-04 -5.39546700E-01
 -2.94882143E+00  0.00000000E+00  7.26519378E-04  4.23042345E-03  0.00000000E+00
 -1.01757861E-01 -1.27975022E-01  7.57395472E-03 -8.35536419E-02  3.61681471E-01
  4.10201045E+00  0.00000000E+00  0.00000000E+00  1.79625153E-01  0.00000000E+00
  0.00000000E+00  8.56795375E-03  0.00000000E+00  0.00000000E+00 -1.91624496E+00
 -1.13031827E-02  0.00000000E+00  0.00000000E+00  3.12903472E-03  0.00000000E+00
  3.88807982E-02  0.00000000E+00  0.00000000E+00 -4.91693906E-02  0.00000000E+00
 -1.18501845E-02 -1.76607525E+00 -6.28375826E-01  0.00000000E+00  3.36185079E-02
 -2.39016969E-02  0.00000000E+00  3.32507052E-01 -1.62600327E-01 -1.18501845E-02
 -1.76607525E+00 -6.28375826E-01  0.00000000E+00 -3.36185079E-02 -2.39016969E-02
  0.00000000E+00 -3.32507052E-01 -1.62600327E-01  0.00000000E+00  0.00000000E+00
  0.00000000E+00  0.00000000E+00 -1.74854616E-01  0.00000000E+00  0.00000000E+00
 -2.50140216E-01  0.00000000E+00  0.00000000E+00  1.43734132E+00  0.00000000E+00
  0.00000000E+00  0.00000000E+00  1.70187356E-02  0.00000000E+00  0.00000000E+00
  0.00000000E+00  0.00000000E+00 -5.77801185E-02  0.00000000E+00  0.00000000E+00
  0.00000000E+00  0.00000000E+00  0.00000000E+00  0.00000000E+00  9.35831441E-03
  0.00000000E+00  0.00000000E+00 -2.78447046E-01  0.00000000E+00  0.00000000E+00
  0.00000000E+00  0.00000000E+00  0.00000000E+00  9.35831441E-03  0.00000000E+00
  0.00000000E+00 -2.78447046E-01  0.00000000E+00  0.00000000E+00  6.04098751E-02
 -1.82737075E-01 -1.81408485E-02  2.75321868E+00  0.00000000E+00  0.00000000E+00
  5.50765882E-02  0.00000000E+00  0.00000000E+00 -1.66757090E-01  0.00000000E+00
  0.00000000E+00  5.24136600E-01  7.50871145E-03  0.00000000E+00  0.00000000E+00
 -3.59036773E-03  0.00000000E+00 -4.19722574E-02  0.00000000E+00  0.00000000E+00
 -3.06737091E-02  0.00000000E+00  4.50597169E-02 -4.00118231E-01 -6.68343631E-01
  0.00000000E+00  1.90376051E-02 -1.09298602E-02  0.00000000E+00  4.21772628E-01
 -4.75713486E-01  4.50597169E-02 -4.00118231E-01 -6.68343631E-01  0.00000000E+00
 -1.90376051E-02 -1.09298602E-02  0.00000000E+00 -4.21772628E-01 -4.75713486E-01
  0.00000000E+00  0.00000000E+00  0.00000000E+00  0.00000000E+00  0.00000000E+00
 -1.69633331E-01  0.00000000E+00  0.00000000E+00  2.53843226E-01  0.00000000E+00
  0.00000000E+00  3.08918799E+00  0.00000000E+00  0.00000000E+00  0.00000000E+00
  9.02639171E-03  0.00000000E+00  0.00000000E+00  0.00000000E+00  0.00000000E+00
 -1.00383790E-01  0.00000000E+00  0.00000000E+00 -7.74801750E-02 -2.63479056E+00
 -2.67870451E+00  0.00000000E+00  3.86045014E-02 -2.23876854E-02  0.00000000E+00
  5.90256000E-01 -5.59923899E-01  7.74801750E-02  2.63479056E+00  2.67870451E+00
  0.00000000E+00  3.86045014E-02  2.23876854E-02  0.00000000E+00  5.90256000E-01
  5.59923899E-01  0.00000000E+00  0.00000000E+00  0.00000000E+00  0.00000000E+00
  0.00000000E+00 -2.25144022E-01  0.00000000E+00  0.00000000E+00 -2.71396196E-01
  0.00000000E+00  0.00000000E+00 -9.02722414E-01  0.00000000E+00  0.00000000E+00
  0.00000000E+00 -1.59902358E-02  0.00000000E+00  0.00000000E+00  0.00000000E+00
  0.00000000E+00  6.93147167E-02  0.00000000E+00  0.00000000E+00  1.30077526E-01
  9.73765493E-01 -3.05537398E-01  0.00000000E+00 -1.34727040E-02 -3.07810587E-04
  0.00000000E+00  4.29307423E-01 -4.72167051E-01 -1.30077526E-01 -9.73765493E-01
  3.05537398E-01  0.00000000E+00 -1.34727040E-02  3.07810587E-04  0.00000000E+00
  4.29307423E-01  4.72167051E-01 -8.97873136E-03 -8.69167283E-03  2.22560913E-01
  4.35233351E+00  0.00000000E+00  0.00000000E+00 -9.05720416E-02  0.00000000E+00
  0.00000000E+00 -2.40709038E-01  0.00000000E+00  0.00000000E+00 -5.99235726E-01
  2.47826035E-02  0.00000000E+00  0.00000000E+00  2.49491358E-02  0.00000000E+00
 -8.50980515E-02  0.00000000E+00  0.00000000E+00 -1.03608223E-01  0.00000000E+00
 -1.11857902E-01 -2.34861646E+00 -2.56600770E-01  0.00000000E+00  9.90227072E-03
 -2.91197247E-02  0.00000000E+00 -3.68306574E-01 -4.71465850E-01 -1.11857902E-01
 -2.34861646E+00 -2.56600770E-01  0.00000000E+00 -9.90227072E-03 -2.91197247E-02
  0.00000000E+00  3.68306574E-01 -4.71465850E-01  0.00000000E+00  0.00000000E+00
  0.00000000E+00  0.00000000E+00  0.00000000E+00  0.00000000E+00  0.00000000E+00
  0.00000000E+00  0.00000000E+00  0.00000000E+00  0.00000000E+00  0.00000000E+00
  0.00000000E+00  0.00000000E+00  0.00000000E+00  0.00000000E+00  0.00000000E+00
  3.90488458E-02  0.00000000E+00  0.00000000E+00  0.00000000E+00  0.00000000E+00
 -1.28291600E-01  0.00000000E+00  0.00000000E+00  0.00000000E+00  1.84459182E-03
  0.00000000E+00  0.00000000E+00  1.13586386E+00  0.00000000E+00  0.00000000E+00
  0.00000000E+00  0.00000000E+00  0.00000000E+00 -1.84459182E-03  0.00000000E+00
  0.00000000E+00 -1.13586386E+00  0.00000000E+00  0.00000000E+00  6.32404175E-03
 -1.59301660E-02 -1.92029175E-02  4.40273175E+00  0.00000000E+00  0.00000000E+00
 -1.88117150E-01  0.00000000E+00  0.00000000E+00 -7.70770403E-01  0.00000000E+00
  0.00000000E+00 -1.82331710E+00 -1.97491723E-02  0.00000000E+00  0.00000000E+00
 -9.83421382E-03  0.00000000E+00  1.03685748E-01  0.00000000E+00  0.00000000E+00
  1.94932067E-02  0.00000000E+00 -6.18462081E-02 -2.34047160E+00 -2.87254140E-01
  0.00000000E+00  4.81623227E-02 -4.90823301E-03  0.00000000E+00  3.51477893E-01
  6.86203882E-01 -6.18462081E-02 -2.34047160E+00 -2.87254140E-01  0.00000000E+00
 -4.81623227E-02 -4.90823301E-03  0.00000000E+00 -3.51477893E-01  6.86203882E-01
  0.00000000E+00  0.00000000E+00  0.00000000E+00  0.00000000E+00 -1.49389996E-01
  0.00000000E+00  0.00000000E+00 -6.45036186E-01  0.00000000E+00  0.00000000E+00
 -1.15904068E+00  0.00000000E+00  0.00000000E+00  0.00000000E+00 -2.35958280E-02
  0.00000000E+00  0.00000000E+00  0.00000000E+00  0.00000000E+00  7.25772940E-02
  0.00000000E+00  0.00000000E+00  0.00000000E+00  0.00000000E+00  0.00000000E+00
  0.00000000E+00  1.02812445E-03  0.00000000E+00  0.00000000E+00  1.19087079E+00
  0.00000000E+00  0.00000000E+00  0.00000000E+00  0.00000000E+00  0.00000000E+00
  1.02812445E-03  0.00000000E+00  0.00000000E+00  1.19087079E+00  0.00000000E+00
  0.00000000E+00  0.00000000E+00  0.00000000E+00  0.00000000E+00  0.00000000E+00
  0.00000000E+00 -7.91361240E-02  0.00000000E+00  0.00000000E+00 -1.30906374E-01
  0.00000000E+00  0.00000000E+00 -1.91910919E+00  0.00000000E+00  0.00000000E+00
  0.00000000E+00  1.73143481E-02  0.00000000E+00  0.00000000E+00  0.00000000E+00
  0.00000000E+00 -4.11696655E-02  0.00000000E+00  0.00000000E+00 -3.22486120E-02
 -1.44026626E+00  7.45478844E-01  0.00000000E+00 -2.25944716E-02 -2.38407540E-02
  0.00000000E+00  2.30649458E+00  1.04325802E+00  3.22486120E-02  1.44026626E+00
 -7.45478844E-01  0.00000000E+00 -2.25944716E-02  2.38407540E-02  0.00000000E+00
  2.30649458E+00 -1.04325802E+00 -1.17454118E-01  3.14761427E-02  2.77543731E+00
  5.80841602E+00  0.00000000E+00  0.00000000E+00 -2.02070177E-01  0.00000000E+00
  0.00000000E+00 -6.11351431E-01  0.00000000E+00  0.00000000E+00 -6.92046707E-01
  9.40879529E-03  0.00000000E+00  0.00000000E+00 -7.64061240E-03  0.00000000E+00
 -3.33033710E-03  0.00000000E+00  0.00000000E+00  4.89687932E-02  0.00000000E+00
 -1.53174246E-01 -3.42555214E+00 -5.56407302E-01  0.00000000E+00 -8.03827985E-03
 -1.19965646E-03  0.00000000E+00  1.32762744E+00 -1.16394163E+00 -1.53174246E-01
 -3.42555214E+00 -5.56407302E-01  0.00000000E+00  8.03827985E-03 -1.19965646E-03
  0.00000000E+00 -1.32762744E+00 -1.16394163E+00  0.00000000E+00  0.00000000E+00
  0.00000000E+00  0.00000000E+00  0.00000000E+00 -2.74768279E-01  0.00000000E+00
  0.00000000E+00 -1.78913411E+00  0.00000000E+00  0.00000000E+00 -2.46189916E+00
  0.00000000E+00  0.00000000E+00  0.00000000E+00  2.38700257E-02  0.00000000E+00
  0.00000000E+00  0.00000000E+00  0.00000000E+00  1.03089865E-01  0.00000000E+00
  0.00000000E+00  1.21281409E-01  8.29808963E+00  1.40427165E+00  0.00000000E+00
 -2.41210838E-02  4.17728200E-02  0.00000000E+00 -3.16823035E+00  1.69112080E+00
 -1.21281409E-01 -8.29808963E+00 -1.40427165E+00  0.00000000E+00 -2.41210838E-02
 -4.17728200E-02  0.00000000E+00 -3.16823035E+00 -1.69112080E+00  0.00000000E+00
  0.00000000E+00  0.00000000E+00  0.00000000E+00  0.00000000E+00  2.59869496E-01
  0.00000000E+00  0.00000000E+00 -4.15670623E-01  0.00000000E+00  0.00000000E+00
 -1.24549111E+00  0.00000000E+00  0.00000000E+00  0.00000000E+00  5.70825373E-02
  0.00000000E+00  0.00000000E+00  0.00000000E+00  0.00000000E+00  7.07894905E-01
  0.00000000E+00  0.00000000E+00 -4.24791863E-01  3.04314272E+00  2.18515118E-01
  0.00000000E+00 -1.28875901E-01  1.60167767E-01  0.00000000E+00 -5.42570782E-01
 -1.99992401E-02  4.24791863E-01 -3.04314272E+00 -2.18515118E-01  0.00000000E+00
 -1.28875901E-01 -1.60167767E-01  0.00000000E+00 -5.42570782E-01  1.99992401E-02
  2.19138329E-03 -2.00409798E-01  1.08288108E+00  4.78168788E+00  0.00000000E+00
  0.00000000E+00  8.26997950E-02  0.00000000E+00  0.00000000E+00 -2.79520266E-01
  0.00000000E+00  0.00000000E+00 -1.23893088E+00  5.13921644E-04  0.00000000E+00
  0.00000000E+00 -3.81104567E-02  0.00000000E+00  1.15174249E-01  0.00000000E+00
  0.00000000E+00 -7.38388993E-01  0.00000000E+00  4.99764686E-01 -3.28569181E+00
 -2.05060171E-01  0.00000000E+00  1.81870830E-01 -9.15490578E-02  0.00000000E+00
  1.82821710E-01 -3.16152137E-01  4.99764686E-01 -3.28569181E+00 -2.05060171E-01
  0.00000000E+00 -1.81870830E-01 -9.15490578E-02  0.00000000E+00 -1.82821710E-01
 -3.16152137E-01  0.00000000E+00  0.00000000E+00  0.00000000E+00  0.00000000E+00
 -1.89722817E-01  0.00000000E+00  0.00000000E+00 -3.02884602E-02  0.00000000E+00
  0.00000000E+00 -7.25273575E-01  0.00000000E+00  0.00000000E+00  0.00000000E+00
 -2.11387510E-02  0.00000000E+00  0.00000000E+00  0.00000000E+00  0.00000000E+00
  1.12462673E+00  0.00000000E+00  0.00000000E+00  0.00000000E+00  0.00000000E+00
  0.00000000E+00  0.00000000E+00 -1.76563422E-02  0.00000000E+00  0.00000000E+00
  5.82404529E-01  0.00000000E+00  0.00000000E+00  0.00000000E+00  0.00000000E+00
  0.00000000E+00 -1.76563422E-02  0.00000000E+00  0.00000000E+00  5.82404529E-01
  0.00000000E+00  0.00000000E+00  1.53731111E-02 -1.80590731E-02 -5.58066509E-01
 -8.75089991E-01  0.00000000E+00  0.00000000E+00 -1.29126909E-01  0.00000000E+00
  0.00000000E+00  9.18349276E-02  0.00000000E+00  0.00000000E+00 -4.86339450E-01
 -1.78724707E-02  0.00000000E+00  0.00000000E+00  2.01621932E-02  0.00000000E+00
  1.14105251E+00  0.00000000E+00  0.00000000E+00  7.91538349E-02  0.00000000E+00
 -1.03303912E-01  6.34458731E-01  5.65718149E-02  0.00000000E+00 -9.14525055E-02
 -2.52753917E-03  0.00000000E+00  7.74482635E-02  6.63646061E-01 -1.03303912E-01
  6.34458731E-01  5.65718149E-02  0.00000000E+00  9.14525055E-02 -2.52753917E-03
  0.00000000E+00 -7.74482635E-02  6.63646061E-01  0.00000000E+00  0.00000000E+00
  0.00000000E+00  0.00000000E+00  0.00000000E+00  0.00000000E+00  0.00000000E+00
  0.00000000E+00  0.00000000E+00  0.00000000E+00  0.00000000E+00  0.00000000E+00
  0.00000000E+00  0.00000000E+00  0.00000000E+00  0.00000000E+00  0.00000000E+00
 -1.83004283E-02  0.00000000E+00  0.00000000E+00  0.00000000E+00  0.00000000E+00
  1.23290727E+00  0.00000000E+00  0.00000000E+00  0.00000000E+00  3.77229996E-02
  0.00000000E+00  0.00000000E+00 -7.30536613E-01  0.00000000E+00  0.00000000E+00
  0.00000000E+00  0.00000000E+00  0.00000000E+00 -3.77229996E-02  0.00000000E+00
  0.00000000E+00  7.30536613E-01  0.00000000E+00  0.00000000E+00 -9.61051119E-03
 -2.14127059E-01  1.57364421E+00  3.20390937E+00  0.00000000E+00  0.00000000E+00
  5.26823456E-01  0.00000000E+00  0.00000000E+00 -1.12969298E+00  0.00000000E+00
  0.00000000E+00 -7.11557930E-01  6.73819225E-03  0.00000000E+00  0.00000000E+00
 -9.38300298E-02  0.00000000E+00  3.17039016E-01  0.00000000E+00  0.00000000E+00
  7.99067931E-01  0.00000000E+00  5.00020660E-01 -2.41913874E+00 -1.48908519E-01
  0.00000000E+00  3.26719816E-01 -1.85823866E-01  0.00000000E+00  6.56878068E-01
 -1.13170525E-01  5.00020660E-01 -2.41913874E+00 -1.48908519E-01  0.00000000E+00
 -3.26719816E-01 -1.85823866E-01  0.00000000E+00 -6.56878068E-01 -1.13170525E-01
  0.00000000E+00  0.00000000E+00  0.00000000E+00  0.00000000E+00  0.00000000E+00