 Entering Gaussian System, Link 0=g09
 Input=OCHD_freq.gjf
 Output=OCHD_freq.log
 Initial command:
 /usr/local/gaussian/g09/l1.exe "/scratch/Gau-15797.inp" -scrdir="/scratch/"
 Entering Link 1 = /usr/local/gaussian/g09/l1.exe PID=     15798.
  
 Copyright (c) 1988,1990,1992,1993,1995,1998,2003,2009,2015,
            Gaussian, Inc.  All Rights Reserved.
  
 This is part of the Gaussian(R) 09 program.  It is based on
 the Gaussian(R) 03 system (copyright 2003, Gaussian, Inc.),
 the Gaussian(R) 98 system (copyright 1998, Gaussian, Inc.),
 the Gaussian(R) 94 system (copyright 1995, Gaussian, Inc.),
 the Gaussian 92(TM) system (copyright 1992, Gaussian, Inc.),
 the Gaussian 90(TM) system (copyright 1990, Gaussian, Inc.),
 the Gaussian 88(TM) system (copyright 1988, Gaussian, Inc.),
 the Gaussian 86(TM) system (copyright 1986, Carnegie Mellon
 University), and the Gaussian 82(TM) system (copyright 1983,
 Carnegie Mellon University). Gaussian is a federally registered
 trademark of Gaussian, Inc.
  
 This software contains proprietary and confidential information,
 including trade secrets, belonging to Gaussian, Inc.
  
 This software is provided under written license and may be
 used, copied, transmitted, or stored only in accord with that
 written license.
  
 The following legend is applicable only to US Government
 contracts under FAR:
  
                    RESTRICTED RIGHTS LEGEND
  
 Use, reproduction and disclosure by the US Government is
 subject to restrictions as set forth in subparagraphs (a)
 and (c) of the Commercial Computer Software - Restricted
 Rights clause in FAR 52.227-19.
  
 Gaussian, Inc.
 340 Quinnipiac St., Bldg. 40, Wallingford CT 06492
  
  
 ---------------------------------------------------------------
 Warning -- This program may not be used in any manner that
 competes with the business of Gaussian, Inc. or will provide
 assistance to any competitor of Gaussian, Inc.  The licensee
 of this program is prohibited from giving any competitor of
 Gaussian, Inc. access to this program.  By using this program,
 the user acknowledges that Gaussian, Inc. is engaged in the
 business of creating and licensing software in the field of
 computational chemistry and represents and warrants to the
 licensee that it is not a competitor of Gaussian, Inc. and that
 it will not use this program in any manner prohibited above.
 ---------------------------------------------------------------
  

 Cite this work as:
 Gaussian 09, Revision E.01,
 M. J. Frisch, G. W. Trucks, H. B. Schlegel, G. E. Scuseria, 
 M. A. Robb, J. R. Cheeseman, G. Scalmani, V. Barone, B. Mennucci, 
 G. A. Petersson, H. Nakatsuji, M. Caricato, X. Li, H. P. Hratchian, 
 A. F. Izmaylov, J. Bloino, G. Zheng, J. L. Sonnenberg, M. Hada, 
 M. Ehara, K. Toyota, R. Fukuda, J. Hasegawa, M. Ishida, T. Nakajima, 
 Y. Honda, O. Kitao, H. Nakai, T. Vreven, J. A. Montgomery, Jr., 
 J. E. Peralta, F. Ogliaro, M. Bearpark, J. J. Heyd, E. Brothers, 
 K. N. Kudin, V. N. Staroverov, T. Keith, R. Kobayashi, J. Normand, 
 K. Raghavachari, A. Rendell, J. C. Burant, S. S. Iyengar, J. Tomasi, 
 M. Cossi, N. Rega, J. M. Millam, M. Klene, J. E. Knox, J. B. Cross, 
 V. Bakken, C. Adamo, J. Jaramillo, R. Gomperts, R. E. Stratmann, 
 O. Yazyev, A. J. Austin, R. Cammi, C. Pomelli, J. W. Ochterski, 
 R. L. Martin, K. Morokuma, V. G. Zakrzewski, G. A. Voth, 
 P. Salvador, J. J. Dannenberg, S. Dapprich, A. D. Daniels, 
 O. Farkas, J. B. Foresman, J. V. Ortiz, J. Cioslowski, 
 and D. J. Fox, Gaussian, Inc., Wallingford CT, 2013.
 
 ******************************************
 Gaussian 09:  ES64L-G09RevE.01 30-Nov-2015
                 2-Oct-2020 
 ******************************************
 %Chk=OCHD_freq.chk
 %NProc=28
 Will use up to   28 processors via shared memory.
 %Mem=1000MB
 ----------------------------------------------------------------------
 #MP2/aug-cc-pvdz #Density=current #Opt=VeryTight #Frequency=Anharmonic
 ----------------------------------------------------------------------
 1/7=1,18=20,19=15,38=1,80=1/1,3;
 2/9=110,12=2,17=6,18=5,40=1/2;
 3/5=16,7=10,11=9,16=1,25=1,30=1,71=1/1,2,3;
 4//1;
 5/5=2,38=5/2;
 8/6=4,10=1/1;
 9/15=2,16=-3/6;
 10/5=1/2;
 6/7=2,8=2,9=2,10=2,22=-1/1;
 7/12=2/1,2,3,16;
 1/7=1,18=20,19=15,80=1/3(2);
 2/9=110/2;
 99/8=1000/99;
 2/9=110/2;
 3/5=16,7=10,11=9,16=1,25=1,30=1,71=1/1,2,3;
 4/5=5,16=3,69=1/1;
 5/5=2,38=5/2;
 8/6=4,10=1/1;
 9/15=2,16=-3/6;
 10/5=1/2;
 7/12=2/1,2,3,16;
 1/7=1,18=20,19=15,80=1/3(-8);
 2/9=110/2;
 6/7=2,8=2,9=2,10=2,22=-1/1;
 99/8=1000/99;
 -----------------
 Formaldahyde freq
 -----------------
 Symbolic Z-matrix:
 Charge =  0 Multiplicity = 1
 O
 C                    1    ROC
 H                    2    RCH      1    A
 H(Iso=2)             2    RCH      1    A        3    D        0
       Variables:
  ROC                   1.22                     
  RCH                   1.07                     
  A                   120.                       
  D                   180.                       
 

 GradGradGradGradGradGradGradGradGradGradGradGradGradGradGradGradGradGrad
 Berny optimization.
 Initialization pass.
                           ----------------------------
                           !    Initial Parameters    !
                           ! (Angstroms and Degrees)  !
 --------------------------                            --------------------------
 ! Name  Definition              Value          Derivative Info.                !
 --------------------------------------------------------------------------------
 ! R1    R(1,2)                  1.22           estimate D2E/DX2                !
 ! R2    R(2,3)                  1.07           estimate D2E/DX2                !
 ! R3    R(2,4)                  1.07           estimate D2E/DX2                !
 ! A1    A(1,2,3)              120.0            estimate D2E/DX2                !
 ! A2    A(1,2,4)              120.0            estimate D2E/DX2                !
 ! A3    A(3,2,4)              120.0            estimate D2E/DX2                !
 ! D1    D(1,2,4,3)            180.0            estimate D2E/DX2                !
 --------------------------------------------------------------------------------
 Trust Radius=3.00D-01 FncErr=1.00D-07 GrdErr=1.00D-07
 Number of steps in this run=     20 maximum allowed number of steps=    100.
 GradGradGradGradGradGradGradGradGradGradGradGradGradGradGradGradGradGrad

                          Input orientation:                          
 ---------------------------------------------------------------------
 Center     Atomic      Atomic             Coordinates (Angstroms)
 Number     Number       Type             X           Y           Z
 ---------------------------------------------------------------------
      1          8           0        0.000000    0.000000    0.000000
      2          6           0        0.000000    0.000000    1.220000
      3          1           0        0.926647    0.000000    1.755000
      4          1           0       -0.926647    0.000000    1.755000
 ---------------------------------------------------------------------
                    Distance matrix (angstroms):
                    1          2          3          4
     1  O    0.000000
     2  C    1.220000   0.000000
     3  H    1.984616   1.070000   0.000000
     4  H    1.984616   1.070000   1.853294   0.000000
 Stoichiometry    CH2O
 Framework group  C2V[C2(CO),SGV(H2)]
 Deg. of freedom     3
 Full point group                 C2V     NOp   4
 Largest Abelian subgroup         C2V     NOp   4
 Largest concise Abelian subgroup C2      NOp   2
                         Standard orientation:                         
 ---------------------------------------------------------------------
 Center     Atomic      Atomic             Coordinates (Angstroms)
 Number     Number       Type             X           Y           Z
 ---------------------------------------------------------------------
      1          8           0        0.000000    0.000000    0.676875
      2          6           0        0.000000   -0.000000   -0.543125
      3          1           0       -0.000000    0.926647   -1.078125
      4          1           0       -0.000000   -0.926647   -1.078125
 ---------------------------------------------------------------------
 Rotational constants (GHZ):    204.0920385     35.0093002     29.8832264
 Standard basis: Aug-CC-pVDZ (5D, 7F)
 There are    33 symmetry adapted cartesian basis functions of A1  symmetry.
 There are     6 symmetry adapted cartesian basis functions of A2  symmetry.
 There are    12 symmetry adapted cartesian basis functions of B1  symmetry.
 There are    17 symmetry adapted cartesian basis functions of B2  symmetry.
 There are    29 symmetry adapted basis functions of A1  symmetry.
 There are     6 symmetry adapted basis functions of A2  symmetry.
 There are    12 symmetry adapted basis functions of B1  symmetry.
 There are    17 symmetry adapted basis functions of B2  symmetry.
    64 basis functions,   108 primitive gaussians,    68 cartesian basis functions
     8 alpha electrons        8 beta electrons
       nuclear repulsion energy        31.3065517349 Hartrees.
 NAtoms=    4 NActive=    4 NUniq=    3 SFac= 1.78D+00 NAtFMM=   60 NAOKFM=F Big=F
 Integral buffers will be    131072 words long.
 Raffenetti 1 integral format.
 Two-electron integral symmetry is turned on.
 One-electron integrals computed using PRISM.
 NBasis=    64 RedAO= T EigKep=  8.02D-04  NBF=    29     6    12    17
 NBsUse=    64 1.00D-06 EigRej= -1.00D+00 NBFU=    29     6    12    17
 ExpMin= 2.97D-02 ExpMax= 1.17D+04 ExpMxC= 4.01D+02 IAcc=3 IRadAn=         5 AccDes= 0.00D+00
 Harris functional with IExCor=  205 and IRadAn=       5 diagonalized for initial guess.
 HarFok:  IExCor=  205 AccDes= 0.00D+00 IRadAn=         5 IDoV= 1 UseB2=F ITyADJ=14
 ICtDFT=  3500011 ScaDFX=  1.000000  1.000000  1.000000  1.000000
 FoFCou: FMM=F IPFlag=           0 FMFlag=      100000 FMFlg1=           0
         NFxFlg=           0 DoJE=T BraDBF=F KetDBF=T FulRan=T
         wScrn=  0.000000 ICntrl=     500 IOpCl=  0 I1Cent=   200000004 NGrid=           0
         NMat0=    1 NMatS0=      1 NMatT0=    0 NMatD0=    1 NMtDS0=    0 NMtDT0=    0
 Petite list used in FoFCou.
 Initial guess orbital symmetries:
       Occupied  (A1) (A1) (A1) (A1) (B2) (A1) (B1) (B2)
       Virtual   (B1) (A1) (B2) (A1) (B1) (A1) (B2) (A1) (A1) (B2)
                 (B1) (A1) (A2) (B2) (B1) (A1) (B2) (A1) (A1) (A1)
                 (B2) (B1) (A2) (B2) (A1) (B1) (A1) (B2) (A1) (B2)
                 (B1) (A2) (A1) (A1) (A2) (B2) (B1) (A1) (B2) (B1)
                 (A1) (B2) (A1) (B1) (A1) (A2) (B2) (A1) (A1) (B2)
                 (A1) (A2) (A1) (B1) (B2) (A1)
 The electronic state of the initial guess is 1-A1.
 Keep R1 ints in memory in symmetry-blocked form, NReq=3059338.
 Requested convergence on RMS density matrix=1.00D-08 within 128 cycles.
 Requested convergence on MAX density matrix=1.00D-06.
 Requested convergence on             energy=1.00D-06.
 No special actions if energy rises.
 SCF Done:  E(RHF) =  -113.882910911     A.U. after   11 cycles
            NFock= 11  Conv=0.36D-08     -V/T= 2.0014
 ExpMin= 2.97D-02 ExpMax= 1.17D+04 ExpMxC= 4.01D+02 IAcc=3 IRadAn=         5 AccDes= 0.00D+00
 HarFok:  IExCor=  205 AccDes= 0.00D+00 IRadAn=         5 IDoV=-2 UseB2=F ITyADJ=14
 ICtDFT= 12500011 ScaDFX=  1.000000  1.000000  1.000000  1.000000
 Range of M.O.s used for correlation:     3    64
 NBasis=    64 NAE=     8 NBE=     8 NFC=     2 NFV=     0
 NROrb=     62 NOA=     6 NOB=     6 NVA=    56 NVB=    56

 **** Warning!!: The largest alpha MO coefficient is  0.11980790D+02

 Fully direct method using O(ONN) memory.
 JobTyp=1 Pass  1:  I=   3 to   8 NPSUse= 10 ParTrn=T ParDer=T DoDerP=T.
 Spin components of T(2) and E(2):
     alpha-alpha T2 =       0.1313216596D-01 E2=     -0.4163422768D-01
     alpha-beta  T2 =       0.7922446509D-01 E2=     -0.2502417212D+00
     beta-beta   T2 =       0.1313216596D-01 E2=     -0.4163422768D-01
 ANorm=    0.1051422273D+01
 E2 =    -0.3335101765D+00 EUMP2 =    -0.11421642108766D+03
          IDoAtm=1111
          Differentiating once with respect to electric field.
                with respect to dipole field.
          Differentiating once with respect to nuclear coordinates.
 Keep R1 ints in memory in symmetry-blocked form, NReq=3037835.
          There are     1 degrees of freedom in the 1st order CPHF.  IDoFFX=0 NUNeed=     1.
 LinEq1:  Iter=  0 NonCon=     1 RMS=8.24D-03 Max=7.74D-02 NDo=     1
 AX will form     1 AO Fock derivatives at one time.
 LinEq1:  Iter=  1 NonCon=     1 RMS=2.61D-03 Max=1.83D-02 NDo=     1
 LinEq1:  Iter=  2 NonCon=     1 RMS=7.70D-04 Max=6.40D-03 NDo=     1
 LinEq1:  Iter=  3 NonCon=     1 RMS=2.13D-04 Max=1.71D-03 NDo=     1
 LinEq1:  Iter=  4 NonCon=     1 RMS=5.25D-05 Max=3.90D-04 NDo=     1
 LinEq1:  Iter=  5 NonCon=     1 RMS=1.26D-05 Max=9.11D-05 NDo=     1
 LinEq1:  Iter=  6 NonCon=     1 RMS=2.56D-06 Max=1.95D-05 NDo=     1
 LinEq1:  Iter=  7 NonCon=     1 RMS=3.63D-07 Max=2.54D-06 NDo=     1
 LinEq1:  Iter=  8 NonCon=     1 RMS=3.94D-08 Max=2.03D-07 NDo=     1
 LinEq1:  Iter=  9 NonCon=     1 RMS=4.31D-09 Max=2.78D-08 NDo=     1
 LinEq1:  Iter= 10 NonCon=     1 RMS=3.77D-10 Max=2.15D-09 NDo=     1
 LinEq1:  Iter= 11 NonCon=     0 RMS=3.02D-11 Max=1.53D-10 NDo=     1
 Linear equations converged to 1.000D-10 1.000D-09 after    11 iterations.
 End of Minotr F.D. properties file   721 does not exist.
 End of Minotr F.D. properties file   722 does not exist.
 End of Minotr F.D. properties file   788 does not exist.

 **********************************************************************

            Population analysis using the MP2 density.

 **********************************************************************

 Orbital symmetries:
       Occupied  (A1) (A1) (A1) (A1) (B2) (A1) (B1) (B2)
       Virtual   (A1) (B2) (B1) (A1) (B1) (B2) (A1) (A1) (A1) (B2)
                 (B1) (A1) (A2) (B2) (A1) (B1) (B2) (A1) (B2) (A1)
                 (A2) (B1) (A1) (B2) (A1) (B1) (A1) (B2) (A1) (B2)
                 (A2) (B1) (A1) (A1) (A2) (B2) (A1) (B1) (B2) (B1)
                 (A1) (B2) (A1) (B1) (A1) (A2) (B2) (A1) (A1) (B2)
                 (A1) (A2) (A1) (B1) (B2) (A1)
 The electronic state is 1-A1.
 Alpha  occ. eigenvalues --  -20.58672 -11.34673  -1.40143  -0.88200  -0.70486
 Alpha  occ. eigenvalues --   -0.64767  -0.52967  -0.44676
 Alpha virt. eigenvalues --    0.03281   0.04973   0.06831   0.08970   0.14623
 Alpha virt. eigenvalues --    0.15687   0.16010   0.21988   0.26188   0.26381
 Alpha virt. eigenvalues --    0.26784   0.32330   0.34144   0.36302   0.45438
 Alpha virt. eigenvalues --    0.45664   0.46756   0.51057   0.55099   0.55660
 Alpha virt. eigenvalues --    0.60035   0.61258   0.63570   0.69812   0.75971
 Alpha virt. eigenvalues --    0.84435   0.89342   1.00166   1.06853   1.21080
 Alpha virt. eigenvalues --    1.21370   1.22813   1.28686   1.41943   1.49568
 Alpha virt. eigenvalues --    1.50733   1.61356   1.62760   1.82387   1.82951
 Alpha virt. eigenvalues --    1.96266   1.97319   2.09039   2.13593   2.17271
 Alpha virt. eigenvalues --    2.25714   2.42826   2.55904   2.71636   2.99725
 Alpha virt. eigenvalues --    3.34597   3.69180   3.71029   3.73860   3.89150
 Alpha virt. eigenvalues --    4.03450
          Condensed to atoms (all electrons):
               1          2          3          4
     1  O    8.171738   0.276200  -0.019239  -0.019239
     2  C    0.276200   4.442575   0.250557   0.250557
     3  H   -0.019239   0.250557   1.150529  -0.196521
     4  H   -0.019239   0.250557  -0.196521   1.150529
 Mulliken charges:
               1
     1  O   -0.409460
     2  C    0.780111
     3  H   -0.185326
     4  H   -0.185326
 Sum of Mulliken charges =   0.00000
 Mulliken charges with hydrogens summed into heavy atoms:
               1
     1  O   -0.409460
     2  C    0.409460
 Electronic spatial extent (au):  <R**2>=             60.7226
 Charge=             -0.0000 electrons
 Dipole moment (field-independent basis, Debye):
    X=              0.0000    Y=              0.0000    Z=             -2.4519  Tot=              2.4519
 Quadrupole moment (field-independent basis, Debye-Ang):
   XX=            -11.8331   YY=            -11.7813   ZZ=            -12.5384
   XY=             -0.0000   XZ=             -0.0000   YZ=             -0.0000
 Traceless Quadrupole moment (field-independent basis, Debye-Ang):
   XX=              0.2178   YY=              0.2697   ZZ=             -0.4875
   XY=             -0.0000   XZ=             -0.0000   YZ=             -0.0000
 Octapole moment (field-independent basis, Debye-Ang**2):
  XXX=              0.0000  YYY=              0.0000  ZZZ=              0.4198  XYY=              0.0000
  XXY=             -0.0000  XXZ=              0.5576  XZZ=              0.0000  YZZ=             -0.0000
  YYZ=             -0.7741  XYZ=              0.0000
 Hexadecapole moment (field-independent basis, Debye-Ang**3):
 XXXX=            -10.8805 YYYY=            -18.3921 ZZZZ=            -47.4400 XXXY=             -0.0000
 XXXZ=             -0.0000 YYYX=             -0.0000 YYYZ=              0.0000 ZZZX=             -0.0000
 ZZZY=              0.0000 XXYY=             -5.2049 XXZZ=             -9.5751 YYZZ=            -10.8316
 XXYZ=             -0.0000 YYXZ=             -0.0000 ZZXY=             -0.0000
 N-N= 3.130655173495D+01 E-N=-3.309459370070D+02  KE= 1.140084156423D+02
 Symmetry A1   KE= 1.036928966421D+02
 Symmetry A2   KE= 2.439739868607D-02
 Symmetry B1   KE= 3.655025775954D+00
 Symmetry B2   KE= 6.636095825581D+00
 Calling FoFJK, ICntrl=  10002127 FMM=F ISym2X=1 I1Cent= 0 IOpClX= 0 NMat=1 NMatS=1 NMatT=0.
 ***** Axes restored to original set *****
 -------------------------------------------------------------------
 Center     Atomic                   Forces (Hartrees/Bohr)
 Number     Number              X              Y              Z
 -------------------------------------------------------------------
      1        8           0.000000000   -0.000000000   -0.014090893
      2        6           0.000000000   -0.000000000   -0.022381256
      3        1           0.022283741    0.000000000    0.018236074
      4        1          -0.022283741    0.000000000    0.018236074
 -------------------------------------------------------------------
 Cartesian Forces:  Max     0.022381256 RMS     0.014016992

 GradGradGradGradGradGradGradGradGradGradGradGradGradGradGradGradGradGrad
 Berny optimization.
 FormGI is forming the generalized inverse of G from B-inverse, IUseBI=4.
 Internal  Forces:  Max     0.028416323 RMS     0.016355384
 Search for a local minimum.
 Step number   1 out of a maximum of   20
 All quantities printed in internal units (Hartrees-Bohrs-Radians)
 Mixed Optimization -- RFO/linear search
 Second derivative matrix not updated -- first step.
 The second derivative matrix:
                          R1        R2        R3        A1        A2
           R1           0.95383
           R2           0.00000   0.37230
           R3           0.00000   0.00000   0.37230
           A1           0.00000   0.00000   0.00000   0.16000
           A2           0.00000   0.00000   0.00000   0.00000   0.16000
           A3           0.00000   0.00000   0.00000   0.00000   0.00000
           D1           0.00000   0.00000   0.00000   0.00000   0.00000
                          A3        D1
           A3           0.16000
           D1           0.00000   0.00499
 ITU=  0
     Eigenvalues ---    0.00499   0.16000   0.16000   0.37230   0.37230
     Eigenvalues ---    0.95383
 RFO step:  Lambda=-4.84686190D-03 EMin= 4.99391718D-03
 Linear search not attempted -- first point.
 Iteration  1 RMS(Cart)=  0.03869099 RMS(Int)=  0.00066176
 Iteration  2 RMS(Cart)=  0.00068436 RMS(Int)=  0.00000028
 Iteration  3 RMS(Cart)=  0.00000024 RMS(Int)=  0.00000000
 ClnCor:  largest displacement from symmetrization is 7.25D-11 for atom     2.
 Variable       Old X    -DE/DX   Delta X   Delta X   Delta X     New X
                                 (Linear)    (Quad)   (Total)
    R1        2.30547   0.01409   0.00000   0.01470   0.01470   2.32016
    R2        2.02201   0.02842   0.00000   0.07535   0.07535   2.09735
    R3        2.02201   0.02842   0.00000   0.07535   0.07535   2.09735
    A1        2.09440   0.00313   0.00000   0.01902   0.01902   2.11341
    A2        2.09440   0.00313   0.00000   0.01902   0.01902   2.11341
    A3        2.09440  -0.00627   0.00000  -0.03803  -0.03803   2.05636
    D1        3.14159   0.00000   0.00000   0.00000   0.00000   3.14159
         Item               Value     Threshold  Converged?
 Maximum Force            0.028416     0.000002     NO 
 RMS     Force            0.016355     0.000001     NO 
 Maximum Displacement     0.047035     0.000006     NO 
 RMS     Displacement     0.038646     0.000004     NO 
 Predicted change in Energy=-2.456728D-03
 GradGradGradGradGradGradGradGradGradGradGradGradGradGradGradGradGradGrad

                          Input orientation:                          
 ---------------------------------------------------------------------
 Center     Atomic      Atomic             Coordinates (Angstroms)
 Number     Number       Type             X           Y           Z
 ---------------------------------------------------------------------
      1          8           0        0.000000   -0.000000   -0.024890
      2          6           0       -0.000000    0.000000    1.202888
      3          1           0        0.950450    0.000000    1.776001
      4          1           0       -0.950450   -0.000000    1.776001
 ---------------------------------------------------------------------
                    Distance matrix (angstroms):
                    1          2          3          4
     1  O    0.000000
     2  C    1.227778   0.000000
     3  H    2.036311   1.109871   0.000000
     4  H    2.036311   1.109871   1.900901   0.000000
 Stoichiometry    CH2O
 Framework group  C2V[C2(CO),SGV(H2)]
 Deg. of freedom     3
 Full point group                 C2V     NOp   4
 Largest Abelian subgroup         C2V     NOp   4
 Largest concise Abelian subgroup C2      NOp   2
                         Standard orientation:                         
 ---------------------------------------------------------------------
 Center     Atomic      Atomic             Coordinates (Angstroms)
 Number     Number       Type             X           Y           Z
 ---------------------------------------------------------------------
      1          8           0        0.000000   -0.000000    0.685528
      2          6           0        0.000000    0.000000   -0.542250
      3          1           0        0.000000    0.950450   -1.115362
      4          1           0       -0.000000   -0.950450   -1.115362
 ---------------------------------------------------------------------
 Rotational constants (GHZ):    194.3113327     33.9956895     28.9336161
 Standard basis: Aug-CC-pVDZ (5D, 7F)
 There are    33 symmetry adapted cartesian basis functions of A1  symmetry.
 There are     6 symmetry adapted cartesian basis functions of A2  symmetry.
 There are    12 symmetry adapted cartesian basis functions of B1  symmetry.
 There are    17 symmetry adapted cartesian basis functions of B2  symmetry.
 There are    29 symmetry adapted basis functions of A1  symmetry.
 There are     6 symmetry adapted basis functions of A2  symmetry.
 There are    12 symmetry adapted basis functions of B1  symmetry.
 There are    17 symmetry adapted basis functions of B2  symmetry.
    64 basis functions,   108 primitive gaussians,    68 cartesian basis functions
     8 alpha electrons        8 beta electrons
       nuclear repulsion energy        30.8460024022 Hartrees.
 NAtoms=    4 NActive=    4 NUniq=    3 SFac= 1.78D+00 NAtFMM=   60 NAOKFM=F Big=F
 Integral buffers will be    131072 words long.
 Raffenetti 1 integral format.
 Two-electron integral symmetry is turned on.
 One-electron integrals computed using PRISM.
 NBasis=    64 RedAO= T EigKep=  9.08D-04  NBF=    29     6    12    17
 NBsUse=    64 1.00D-06 EigRej= -1.00D+00 NBFU=    29     6    12    17
 Initial guess from the checkpoint file:  "OCHD_freq.chk"
 B after Tr=    -0.000000   -0.000000    0.000000
         Rot=    1.000000   -0.000000   -0.000000    0.000000 Ang=   0.00 deg.
 Initial guess orbital symmetries:
       Occupied  (A1) (A1) (A1) (A1) (B2) (A1) (B1) (B2)
       Virtual   (A1) (A1) (A1) (A1) (A1) (A1) (A1) (A1) (A1) (A1)
                 (A1) (A1) (A1) (A1) (A1) (A1) (A1) (A1) (A1) (A1)
                 (A1) (A1) (A1) (A1) (A2) (A2) (A2) (A2) (A2) (A2)
                 (B1) (B1) (B1) (B1) (B1) (B1) (B1) (B1) (B1) (B1)
                 (B1) (B2) (B2) (B2) (B2) (B2) (B2) (B2) (B2) (B2)
                 (B2) (B2) (B2) (B2) (B2) (B2)
 ExpMin= 2.97D-02 ExpMax= 1.17D+04 ExpMxC= 4.01D+02 IAcc=3 IRadAn=         5 AccDes= 0.00D+00
 Harris functional with IExCor=  205 and IRadAn=       5 diagonalized for initial guess.
 HarFok:  IExCor=  205 AccDes= 0.00D+00 IRadAn=         5 IDoV= 1 UseB2=F ITyADJ=14
 ICtDFT=  3500011 ScaDFX=  1.000000  1.000000  1.000000  1.000000
 FoFCou: FMM=F IPFlag=           0 FMFlag=      100000 FMFlg1=           0
         NFxFlg=           0 DoJE=T BraDBF=F KetDBF=T FulRan=T
         wScrn=  0.000000 ICntrl=     500 IOpCl=  0 I1Cent=   200000004 NGrid=           0
         NMat0=    1 NMatS0=      1 NMatT0=    0 NMatD0=    1 NMtDS0=    0 NMtDT0=    0
 Petite list used in FoFCou.
 Keep R1 ints in memory in symmetry-blocked form, NReq=3059310.
 Requested convergence on RMS density matrix=1.00D-08 within 128 cycles.
 Requested convergence on MAX density matrix=1.00D-06.
 Requested convergence on             energy=1.00D-06.
 No special actions if energy rises.
 SCF Done:  E(RHF) =  -113.882678221     A.U. after   10 cycles
            NFock= 10  Conv=0.36D-08     -V/T= 2.0028
 ExpMin= 2.97D-02 ExpMax= 1.17D+04 ExpMxC= 4.01D+02 IAcc=3 IRadAn=         5 AccDes= 0.00D+00
 HarFok:  IExCor=  205 AccDes= 0.00D+00 IRadAn=         5 IDoV=-2 UseB2=F ITyADJ=14
 ICtDFT= 12500011 ScaDFX=  1.000000  1.000000  1.000000  1.000000
 Range of M.O.s used for correlation:     3    64
 NBasis=    64 NAE=     8 NBE=     8 NFC=     2 NFV=     0
 NROrb=     62 NOA=     6 NOB=     6 NVA=    56 NVB=    56

 **** Warning!!: The largest alpha MO coefficient is  0.11357749D+02

 Fully direct method using O(ONN) memory.
 JobTyp=1 Pass  1:  I=   3 to   8 NPSUse= 10 ParTrn=T ParDer=T DoDerP=T.
 Spin components of T(2) and E(2):
     alpha-alpha T2 =       0.1339852356D-01 E2=     -0.4192402598D-01
     alpha-beta  T2 =       0.8112370306D-01 E2=     -0.2523007635D+00
     beta-beta   T2 =       0.1339852356D-01 E2=     -0.4192402598D-01
 ANorm=    0.1052578144D+01
 E2 =    -0.3361488154D+00 EUMP2 =    -0.11421882703668D+03
          IDoAtm=1111
          Differentiating once with respect to electric field.
                with respect to dipole field.
          Differentiating once with respect to nuclear coordinates.
 Keep R1 ints in memory in symmetry-blocked form, NReq=3037835.
          There are     1 degrees of freedom in the 1st order CPHF.  IDoFFX=0 NUNeed=     1.
 LinEq1:  Iter=  0 NonCon=     1 RMS=8.53D-03 Max=7.97D-02 NDo=     1
 AX will form     1 AO Fock derivatives at one time.
 LinEq1:  Iter=  1 NonCon=     1 RMS=2.76D-03 Max=1.87D-02 NDo=     1
 LinEq1:  Iter=  2 NonCon=     1 RMS=8.23D-04 Max=6.84D-03 NDo=     1
 LinEq1:  Iter=  3 NonCon=     1 RMS=2.38D-04 Max=1.88D-03 NDo=     1
 LinEq1:  Iter=  4 NonCon=     1 RMS=6.13D-05 Max=4.31D-04 NDo=     1
 LinEq1:  Iter=  5 NonCon=     1 RMS=1.47D-05 Max=1.08D-04 NDo=     1
 LinEq1:  Iter=  6 NonCon=     1 RMS=2.92D-06 Max=2.13D-05 NDo=     1
 LinEq1:  Iter=  7 NonCon=     1 RMS=4.09D-07 Max=2.86D-06 NDo=     1
 LinEq1:  Iter=  8 NonCon=     1 RMS=4.41D-08 Max=2.22D-07 NDo=     1
 LinEq1:  Iter=  9 NonCon=     1 RMS=4.79D-09 Max=3.18D-08 NDo=     1
 LinEq1:  Iter= 10 NonCon=     1 RMS=4.25D-10 Max=2.28D-09 NDo=     1
 LinEq1:  Iter= 11 NonCon=     0 RMS=3.53D-11 Max=1.76D-10 NDo=     1
 Linear equations converged to 1.000D-10 1.000D-09 after    11 iterations.
 End of Minotr F.D. properties file   721 does not exist.
 End of Minotr F.D. properties file   722 does not exist.
 End of Minotr F.D. properties file   788 does not exist.
 Calling FoFJK, ICntrl=  10002127 FMM=F ISym2X=1 I1Cent= 0 IOpClX= 0 NMat=1 NMatS=1 NMatT=0.
 ***** Axes restored to original set *****
 -------------------------------------------------------------------
 Center     Atomic                   Forces (Hartrees/Bohr)
 Number     Number              X              Y              Z
 -------------------------------------------------------------------
      1        8          -0.000000000   -0.000000000    0.004661061
      2        6          -0.000000000   -0.000000000   -0.007781005
      3        1          -0.000340965    0.000000000    0.001559972
      4        1           0.000340965    0.000000000    0.001559972
 -------------------------------------------------------------------
 Cartesian Forces:  Max     0.007781005 RMS     0.002698287

 GradGradGradGradGradGradGradGradGradGradGradGradGradGradGradGradGradGrad
 Berny optimization.
 Using GEDIIS/GDIIS optimizer.
 FormGI is forming the generalized inverse of G from B-inverse, IUseBI=4.
 Internal  Forces:  Max     0.004661061 RMS     0.002033890
 Search for a local minimum.
 Step number   2 out of a maximum of   20
 All quantities printed in internal units (Hartrees-Bohrs-Radians)
 Mixed Optimization -- RFO/linear search
 Update second derivatives using D2CorX and points    1    2
 DE= -2.41D-03 DEPred=-2.46D-03 R= 9.79D-01
 TightC=F SS=  1.41D+00  RLast= 1.17D-01 DXNew= 5.0454D-01 3.5165D-01
 Trust test= 9.79D-01 RLast= 1.17D-01 DXMaxT set to 3.52D-01
 The second derivative matrix:
                          R1        R2        R3        A1        A2
           R1           0.98726
           R2           0.02865   0.37274
           R3           0.02865   0.00043   0.37274
           A1          -0.00066  -0.00556  -0.00556   0.15898
           A2          -0.00066  -0.00556  -0.00556  -0.00102   0.15898
           A3           0.00133   0.01113   0.01113   0.00204   0.00204
           D1           0.00000   0.00000   0.00000   0.00000   0.00000
                          A3        D1
           A3           0.15591
           D1          -0.00000   0.00499
 ITU=  1  0
 Use linear search instead of GDIIS.
     Eigenvalues ---    0.00499   0.15219   0.16000   0.37219   0.37230
     Eigenvalues ---    0.98993
 RFO step:  Lambda=-6.75038594D-05 EMin= 4.99391718D-03
 Quartic linear search produced a step of  0.03070.
 Iteration  1 RMS(Cart)=  0.00550979 RMS(Int)=  0.00003000
 Iteration  2 RMS(Cart)=  0.00003021 RMS(Int)=  0.00000000
 Iteration  3 RMS(Cart)=  0.00000000 RMS(Int)=  0.00000000
 ClnCor:  largest displacement from symmetrization is 2.72D-11 for atom     2.
 Variable       Old X    -DE/DX   Delta X   Delta X   Delta X     New X
                                 (Linear)    (Quad)   (Total)
    R1        2.32016  -0.00466   0.00045  -0.00528  -0.00483   2.31534
    R2        2.09735   0.00051   0.00231   0.00030   0.00261   2.09997
    R3        2.09735   0.00051   0.00231   0.00030   0.00261   2.09997
    A1        2.11341   0.00106   0.00058   0.00659   0.00717   2.12058
    A2        2.11341   0.00106   0.00058   0.00659   0.00717   2.12058
    A3        2.05636  -0.00211  -0.00117  -0.01318  -0.01435   2.04202
    D1        3.14159   0.00000   0.00000   0.00000   0.00000   3.14159
         Item               Value     Threshold  Converged?
 Maximum Force            0.004661     0.000002     NO 
 RMS     Force            0.002034     0.000001     NO 
 Maximum Displacement     0.008317     0.000006     NO 
 RMS     Displacement     0.005522     0.000004     NO 
 Predicted change in Energy=-3.471158D-05
 GradGradGradGradGradGradGradGradGradGradGradGradGradGradGradGradGradGrad

                          Input orientation:                          
 ---------------------------------------------------------------------
 Center     Atomic      Atomic             Coordinates (Angstroms)
 Number     Number       Type             X           Y           Z
 ---------------------------------------------------------------------
      1          8           0        0.000000   -0.000000   -0.026736
      2          6           0       -0.000000    0.000000    1.198487
      3          1           0        0.947494    0.000000    1.779125
      4          1           0       -0.947494   -0.000000    1.779125
 ---------------------------------------------------------------------
                    Distance matrix (angstroms):
                    1          2          3          4
     1  O    0.000000
     2  C    1.225224   0.000000
     3  H    2.039333   1.111254   0.000000
     4  H    2.039333   1.111254   1.894989   0.000000
 Stoichiometry    CH2O
 Framework group  C2V[C2(CO),SGV(H2)]
 Deg. of freedom     3
 Full point group                 C2V     NOp   4
 Largest Abelian subgroup         C2V     NOp   4
 Largest concise Abelian subgroup C2      NOp   2
                         Standard orientation:                         
 ---------------------------------------------------------------------
 Center     Atomic      Atomic             Coordinates (Angstroms)
 Number     Number       Type             X           Y           Z
 ---------------------------------------------------------------------
      1          8           0       -0.000000    0.000000    0.685192
      2          6           0        0.000000   -0.000000   -0.540032
      3          1           0        0.000000    0.947494   -1.120670
      4          1           0       -0.000000   -0.947494   -1.120670
 ---------------------------------------------------------------------
 Rotational constants (GHZ):    195.5869488     33.9968142     28.9625584
 Standard basis: Aug-CC-pVDZ (5D, 7F)
 There are    33 symmetry adapted cartesian basis functions of A1  symmetry.
 There are     6 symmetry adapted cartesian basis functions of A2  symmetry.
 There are    12 symmetry adapted cartesian basis functions of B1  symmetry.
 There are    17 symmetry adapted cartesian basis functions of B2  symmetry.
 There are    29 symmetry adapted basis functions of A1  symmetry.
 There are     6 symmetry adapted basis functions of A2  symmetry.
 There are    12 symmetry adapted basis functions of B1  symmetry.
 There are    17 symmetry adapted basis functions of B2  symmetry.
    64 basis functions,   108 primitive gaussians,    68 cartesian basis functions
     8 alpha electrons        8 beta electrons
       nuclear repulsion energy        30.8767182313 Hartrees.
 NAtoms=    4 NActive=    4 NUniq=    3 SFac= 1.78D+00 NAtFMM=   60 NAOKFM=F Big=F
 Integral buffers will be    131072 words long.
 Raffenetti 1 integral format.
 Two-electron integral symmetry is turned on.
 One-electron integrals computed using PRISM.
 NBasis=    64 RedAO= T EigKep=  9.09D-04  NBF=    29     6    12    17
 NBsUse=    64 1.00D-06 EigRej= -1.00D+00 NBFU=    29     6    12    17
 Initial guess from the checkpoint file:  "OCHD_freq.chk"
 B after Tr=     0.000000   -0.000000    0.000000
         Rot=    1.000000    0.000000   -0.000000    0.000000 Ang=   0.00 deg.
 Initial guess orbital symmetries:
       Occupied  (A1) (A1) (A1) (A1) (B2) (A1) (B1) (B2)
       Virtual   (A1) (A1) (A1) (A1) (A1) (A1) (A1) (A1) (A1) (A1)
                 (A1) (A1) (A1) (A1) (A1) (A1) (A1) (A1) (A1) (A1)
                 (A1) (A1) (A1) (A1) (A2) (A2) (A2) (A2) (A2) (A2)
                 (B1) (B1) (B1) (B1) (B1) (B1) (B1) (B1) (B1) (B1)
                 (B1) (B2) (B2) (B2) (B2) (B2) (B2) (B2) (B2) (B2)
                 (B2) (B2) (B2) (B2) (B2) (B2)
 Keep R1 ints in memory in symmetry-blocked form, NReq=3059310.
 Requested convergence on RMS density matrix=1.00D-08 within 128 cycles.
 Requested convergence on MAX density matrix=1.00D-06.
 Requested convergence on             energy=1.00D-06.
 No special actions if energy rises.
 SCF Done:  E(RHF) =  -113.882968964     A.U. after    9 cycles
            NFock=  9  Conv=0.55D-08     -V/T= 2.0028
 ExpMin= 2.97D-02 ExpMax= 1.17D+04 ExpMxC= 4.01D+02 IAcc=3 IRadAn=         5 AccDes= 0.00D+00
 HarFok:  IExCor=  205 AccDes= 0.00D+00 IRadAn=         5 IDoV=-2 UseB2=F ITyADJ=14
 ICtDFT= 12500011 ScaDFX=  1.000000  1.000000  1.000000  1.000000
 Range of M.O.s used for correlation:     3    64
 NBasis=    64 NAE=     8 NBE=     8 NFC=     2 NFV=     0
 NROrb=     62 NOA=     6 NOB=     6 NVA=    56 NVB=    56

 **** Warning!!: The largest alpha MO coefficient is  0.11322995D+02

 Fully direct method using O(ONN) memory.
 JobTyp=1 Pass  1:  I=   3 to   8 NPSUse= 10 ParTrn=T ParDer=T DoDerP=T.
 Spin components of T(2) and E(2):
     alpha-alpha T2 =       0.1336935257D-01 E2=     -0.4188892479D-01
     alpha-beta  T2 =       0.8096479166D-01 E2=     -0.2521258416D+00
     beta-beta   T2 =       0.1336935257D-01 E2=     -0.4188892479D-01
 ANorm=    0.1052474939D+01
 E2 =    -0.3359036912D+00 EUMP2 =    -0.11421887265509D+03
          IDoAtm=1111
          Differentiating once with respect to electric field.
                with respect to dipole field.
          Differentiating once with respect to nuclear coordinates.
 Keep R1 ints in memory in symmetry-blocked form, NReq=3037835.
          There are     1 degrees of freedom in the 1st order CPHF.  IDoFFX=0 NUNeed=     1.
 LinEq1:  Iter=  0 NonCon=     1 RMS=8.50D-03 Max=7.94D-02 NDo=     1
 AX will form     1 AO Fock derivatives at one time.
 LinEq1:  Iter=  1 NonCon=     1 RMS=2.75D-03 Max=1.86D-02 NDo=     1
 LinEq1:  Iter=  2 NonCon=     1 RMS=8.17D-04 Max=6.76D-03 NDo=     1
 LinEq1:  Iter=  3 NonCon=     1 RMS=2.35D-04 Max=1.84D-03 NDo=     1
 LinEq1:  Iter=  4 NonCon=     1 RMS=6.00D-05 Max=4.23D-04 NDo=     1
 LinEq1:  Iter=  5 NonCon=     1 RMS=1.42D-05 Max=1.05D-04 NDo=     1
 LinEq1:  Iter=  6 NonCon=     1 RMS=2.87D-06 Max=2.10D-05 NDo=     1
 LinEq1:  Iter=  7 NonCon=     1 RMS=4.03D-07 Max=2.85D-06 NDo=     1
 LinEq1:  Iter=  8 NonCon=     1 RMS=4.35D-08 Max=2.19D-07 NDo=     1
 LinEq1:  Iter=  9 NonCon=     1 RMS=4.71D-09 Max=3.16D-08 NDo=     1
 LinEq1:  Iter= 10 NonCon=     1 RMS=4.20D-10 Max=2.25D-09 NDo=     1
 LinEq1:  Iter= 11 NonCon=     0 RMS=3.50D-11 Max=1.70D-10 NDo=     1
 Linear equations converged to 1.000D-10 1.000D-09 after    11 iterations.
 End of Minotr F.D. properties file   721 does not exist.
 End of Minotr F.D. properties file   722 does not exist.
 End of Minotr F.D. properties file   788 does not exist.
 Calling FoFJK, ICntrl=  10002127 FMM=F ISym2X=1 I1Cent= 0 IOpClX= 0 NMat=1 NMatS=1 NMatT=0.
 ***** Axes restored to original set *****
 -------------------------------------------------------------------
 Center     Atomic                   Forces (Hartrees/Bohr)
 Number     Number              X              Y              Z
 -------------------------------------------------------------------
      1        8          -0.000000000   -0.000000000    0.001924219
      2        6          -0.000000000   -0.000000000   -0.002552866
      3        1          -0.000198118    0.000000000    0.000314324
      4        1           0.000198118    0.000000000    0.000314324
 -------------------------------------------------------------------
 Cartesian Forces:  Max     0.002552866 RMS     0.000935229

 GradGradGradGradGradGradGradGradGradGradGradGradGradGradGradGradGradGrad
 Berny optimization.
 Using GEDIIS/GDIIS optimizer.
 FormGI is forming the generalized inverse of G from B-inverse, IUseBI=4.
 Internal  Forces:  Max     0.001924219 RMS     0.000766108
 Search for a local minimum.
 Step number   3 out of a maximum of   20
 All quantities printed in internal units (Hartrees-Bohrs-Radians)
 Mixed Optimization -- En-DIIS/RFO-DIIS
 Update second derivatives using D2CorX and points    1    2    3
 DE= -4.56D-05 DEPred=-3.47D-05 R= 1.31D+00
 TightC=F SS=  1.41D+00  RLast= 1.86D-02 DXNew= 5.9140D-01 5.5775D-02
 Trust test= 1.31D+00 RLast= 1.86D-02 DXMaxT set to 3.52D-01
 The second derivative matrix:
                          R1        R2        R3        A1        A2
           R1           0.84325
           R2           0.04321   0.37509
           R3           0.04321   0.00279   0.37509
           A1           0.02574  -0.00606  -0.00606   0.15547
           A2           0.02574  -0.00606  -0.00606  -0.00453   0.15547
           A3          -0.05148   0.01212   0.01212   0.00905   0.00905
           D1          -0.00000   0.00000   0.00000   0.00000   0.00000
                          A3        D1
           A3           0.14190
           D1          -0.00000   0.00499
 ITU=  1  1  0
 Use linear search instead of GDIIS.
     Eigenvalues ---    0.00499   0.12452   0.16000   0.37230   0.37336
     Eigenvalues ---    0.85610
 RFO step:  Lambda=-1.05875315D-06 EMin= 4.99391718D-03
 Quartic linear search produced a step of  0.40373.
 Iteration  1 RMS(Cart)=  0.00192944 RMS(Int)=  0.00000362
 Iteration  2 RMS(Cart)=  0.00000354 RMS(Int)=  0.00000000
 Iteration  3 RMS(Cart)=  0.00000000 RMS(Int)=  0.00000000
 ClnCor:  largest displacement from symmetrization is 2.86D-11 for atom     2.
 Variable       Old X    -DE/DX   Delta X   Delta X   Delta X     New X
                                 (Linear)    (Quad)   (Total)
    R1        2.31534  -0.00192  -0.00195  -0.00085  -0.00280   2.31254
    R2        2.09997  -0.00000   0.00106  -0.00051   0.00055   2.10051
    R3        2.09997  -0.00000   0.00106  -0.00051   0.00055   2.10051
    A1        2.12058   0.00026   0.00290  -0.00037   0.00252   2.12311
    A2        2.12058   0.00026   0.00290  -0.00037   0.00252   2.12311
    A3        2.04202  -0.00052  -0.00579   0.00075  -0.00504   2.03697
    D1        3.14159   0.00000   0.00000   0.00000   0.00000   3.14159
         Item               Value     Threshold  Converged?
 Maximum Force            0.001924     0.000002     NO 
 RMS     Force            0.000766     0.000001     NO 
 Maximum Displacement     0.003098     0.000006     NO 
 RMS     Displacement     0.001931     0.000004     NO 
 Predicted change in Energy=-4.687510D-06
 GradGradGradGradGradGradGradGradGradGradGradGradGradGradGradGradGradGrad

                          Input orientation:                          
 ---------------------------------------------------------------------
 Center     Atomic      Atomic             Coordinates (Angstroms)
 Number     Number       Type             X           Y           Z
 ---------------------------------------------------------------------
      1          8           0        0.000000   -0.000000   -0.026896
      2          6           0       -0.000000    0.000000    1.196848
      3          1           0        0.946274    0.000000    1.780024
      4          1           0       -0.946274   -0.000000    1.780024
 ---------------------------------------------------------------------
                    Distance matrix (angstroms):
                    1          2          3          4
     1  O    0.000000
     2  C    1.223744   0.000000
     3  H    2.039704   1.111543   0.000000
     4  H    2.039704   1.111543   1.892548   0.000000
 Stoichiometry    CH2O
 Framework group  C2V[C2(CO),SGV(H2)]
 Deg. of freedom     3
 Full point group                 C2V     NOp   4
 Largest Abelian subgroup         C2V     NOp   4
 Largest concise Abelian subgroup C2      NOp   2
                         Standard orientation:                         
 ---------------------------------------------------------------------
 Center     Atomic      Atomic             Coordinates (Angstroms)
 Number     Number       Type             X           Y           Z
 ---------------------------------------------------------------------
      1          8           0        0.000000   -0.000000    0.684769
      2          6           0       -0.000000    0.000000   -0.538975
      3          1           0        0.000000    0.946274   -1.122151
      4          1           0       -0.000000   -0.946274   -1.122151
 ---------------------------------------------------------------------
 Rotational constants (GHZ):    196.1156545     34.0264740     28.9956657
 Standard basis: Aug-CC-pVDZ (5D, 7F)
 There are    33 symmetry adapted cartesian basis functions of A1  symmetry.
 There are     6 symmetry adapted cartesian basis functions of A2  symmetry.
 There are    12 symmetry adapted cartesian basis functions of B1  symmetry.
 There are    17 symmetry adapted cartesian basis functions of B2  symmetry.
 There are    29 symmetry adapted basis functions of A1  symmetry.
 There are     6 symmetry adapted basis functions of A2  symmetry.
 There are    12 symmetry adapted basis functions of B1  symmetry.
 There are    17 symmetry adapted basis functions of B2  symmetry.
    64 basis functions,   108 primitive gaussians,    68 cartesian basis functions
     8 alpha electrons        8 beta electrons
       nuclear repulsion energy        30.8999077741 Hartrees.
 NAtoms=    4 NActive=    4 NUniq=    3 SFac= 1.78D+00 NAtFMM=   60 NAOKFM=F Big=F
 Integral buffers will be    131072 words long.
 Raffenetti 1 integral format.
 Two-electron integral symmetry is turned on.
 One-electron integrals computed using PRISM.
 NBasis=    64 RedAO= T EigKep=  9.08D-04  NBF=    29     6    12    17
 NBsUse=    64 1.00D-06 EigRej= -1.00D+00 NBFU=    29     6    12    17
 Initial guess from the checkpoint file:  "OCHD_freq.chk"
 B after Tr=     0.000000   -0.000000   -0.000000
         Rot=    1.000000    0.000000   -0.000000   -0.000000 Ang=   0.00 deg.
 Initial guess orbital symmetries:
       Occupied  (A1) (A1) (A1) (A1) (B2) (A1) (B1) (B2)
       Virtual   (A1) (A1) (A1) (A1) (A1) (A1) (A1) (A1) (A1) (A1)
                 (A1) (A1) (A1) (A1) (A1) (A1) (A1) (A1) (A1) (A1)
                 (A1) (A1) (A1) (A1) (A2) (A2) (A2) (A2) (A2) (A2)
                 (B1) (B1) (B1) (B1) (B1) (B1) (B1) (B1) (B1) (B1)
                 (B1) (B2) (B2) (B2) (B2) (B2) (B2) (B2) (B2) (B2)
                 (B2) (B2) (B2) (B2) (B2) (B2)
 Keep R1 ints in memory in symmetry-blocked form, NReq=3059310.
 Requested convergence on RMS density matrix=1.00D-08 within 128 cycles.
 Requested convergence on MAX density matrix=1.00D-06.
 Requested convergence on             energy=1.00D-06.
 No special actions if energy rises.
 SCF Done:  E(RHF) =  -113.883142724     A.U. after    9 cycles
            NFock=  9  Conv=0.29D-08     -V/T= 2.0027
 ExpMin= 2.97D-02 ExpMax= 1.17D+04 ExpMxC= 4.01D+02 IAcc=3 IRadAn=         5 AccDes= 0.00D+00
 HarFok:  IExCor=  205 AccDes= 0.00D+00 IRadAn=         5 IDoV=-2 UseB2=F ITyADJ=14
 ICtDFT= 12500011 ScaDFX=  1.000000  1.000000  1.000000  1.000000
 Range of M.O.s used for correlation:     3    64
 NBasis=    64 NAE=     8 NBE=     8 NFC=     2 NFV=     0
 NROrb=     62 NOA=     6 NOB=     6 NVA=    56 NVB=    56

 **** Warning!!: The largest alpha MO coefficient is  0.11314001D+02

 Fully direct method using O(ONN) memory.
 JobTyp=1 Pass  1:  I=   3 to   8 NPSUse= 10 ParTrn=T ParDer=T DoDerP=T.
 Spin components of T(2) and E(2):
     alpha-alpha T2 =       0.1334979378D-01 E2=     -0.4186582720D-01
     alpha-beta  T2 =       0.8085446224D-01 E2=     -0.2520029693D+00
     beta-beta   T2 =       0.1334979378D-01 E2=     -0.4186582720D-01
 ANorm=    0.1052403939D+01
 E2 =    -0.3357346237D+00 EUMP2 =    -0.11421887734817D+03
          IDoAtm=1111
          Differentiating once with respect to electric field.
                with respect to dipole field.
          Differentiating once with respect to nuclear coordinates.
 Keep R1 ints in memory in symmetry-blocked form, NReq=3037835.
          There are     1 degrees of freedom in the 1st order CPHF.  IDoFFX=0 NUNeed=     1.
 LinEq1:  Iter=  0 NonCon=     1 RMS=8.48D-03 Max=7.92D-02 NDo=     1
 AX will form     1 AO Fock derivatives at one time.
 LinEq1:  Iter=  1 NonCon=     1 RMS=2.74D-03 Max=1.85D-02 NDo=     1
 LinEq1:  Iter=  2 NonCon=     1 RMS=8.12D-04 Max=6.71D-03 NDo=     1
 LinEq1:  Iter=  3 NonCon=     1 RMS=2.33D-04 Max=1.81D-03 NDo=     1
 LinEq1:  Iter=  4 NonCon=     1 RMS=5.92D-05 Max=4.18D-04 NDo=     1
 LinEq1:  Iter=  5 NonCon=     1 RMS=1.39D-05 Max=1.03D-04 NDo=     1
 LinEq1:  Iter=  6 NonCon=     1 RMS=2.83D-06 Max=2.09D-05 NDo=     1
 LinEq1:  Iter=  7 NonCon=     1 RMS=3.99D-07 Max=2.83D-06 NDo=     1
 LinEq1:  Iter=  8 NonCon=     1 RMS=4.31D-08 Max=2.17D-07 NDo=     1
 LinEq1:  Iter=  9 NonCon=     1 RMS=4.67D-09 Max=3.13D-08 NDo=     1
 LinEq1:  Iter= 10 NonCon=     1 RMS=4.16D-10 Max=2.24D-09 NDo=     1
 LinEq1:  Iter= 11 NonCon=     0 RMS=3.48D-11 Max=1.67D-10 NDo=     1
 Linear equations converged to 1.000D-10 1.000D-09 after    11 iterations.
 End of Minotr F.D. properties file   721 does not exist.
 End of Minotr F.D. properties file   722 does not exist.
 End of Minotr F.D. properties file   788 does not exist.
 Calling FoFJK, ICntrl=  10002127 FMM=F ISym2X=1 I1Cent= 0 IOpClX= 0 NMat=1 NMatS=1 NMatT=0.
 ***** Axes restored to original set *****
 -------------------------------------------------------------------
 Center     Atomic                   Forces (Hartrees/Bohr)
 Number     Number              X              Y              Z
 -------------------------------------------------------------------
      1        8          -0.000000000   -0.000000000    0.000055919
      2        6           0.000000000   -0.000000000   -0.000016875
      3        1          -0.000020566    0.000000000   -0.000019522
      4        1           0.000020566    0.000000000   -0.000019522
 -------------------------------------------------------------------
 Cartesian Forces:  Max     0.000055919 RMS     0.000020453

 GradGradGradGradGradGradGradGradGradGradGradGradGradGradGradGradGradGrad
 Berny optimization.
 Using GEDIIS/GDIIS optimizer.
 FormGI is forming the generalized inverse of G from B-inverse, IUseBI=4.
 Internal  Forces:  Max     0.000055919 RMS     0.000026096
 Search for a local minimum.
 Step number   4 out of a maximum of   20
 All quantities printed in internal units (Hartrees-Bohrs-Radians)
 Mixed Optimization -- En-DIIS/RFO-DIIS
 Swapping is turned off.
 Update second derivatives using D2CorX and points    1    2    3    4
 DE= -4.69D-06 DEPred=-4.69D-06 R= 1.00D+00
 TightC=F SS=  1.41D+00  RLast= 6.82D-03 DXNew= 5.9140D-01 2.0468D-02
 Trust test= 1.00D+00 RLast= 6.82D-03 DXMaxT set to 3.52D-01
 The second derivative matrix:
                          R1        R2        R3        A1        A2
           R1           0.81297
           R2           0.02942   0.37103
           R3           0.02942  -0.00128   0.37103
           A1           0.02467  -0.00639  -0.00639   0.15582
           A2           0.02467  -0.00639  -0.00639  -0.00418   0.15582
           A3          -0.04933   0.01278   0.01278   0.00836   0.00836
           D1          -0.00000   0.00000   0.00000   0.00000   0.00000
                          A3        D1
           A3           0.14327
           D1          -0.00000   0.00499
 ITU=  1  1  1  0
     Eigenvalues ---    0.00499   0.12682   0.16000   0.36904   0.37230
     Eigenvalues ---    0.82177
 En-DIIS/RFO-DIIS IScMMF=        0 using points:     4    3
 RFO step:  Lambda= 0.00000000D+00.
 DidBck=F Rises=F RFO-DIIS coefs:    1.00696   -0.00696
 Iteration  1 RMS(Cart)=  0.00004948 RMS(Int)=  0.00000000
 Iteration  2 RMS(Cart)=  0.00000000 RMS(Int)=  0.00000000
 ClnCor:  largest displacement from symmetrization is 9.07D-14 for atom     2.
 Variable       Old X    -DE/DX   Delta X   Delta X   Delta X     New X
                                 (Linear)    (Quad)   (Total)
    R1        2.31254  -0.00006  -0.00002  -0.00004  -0.00006   2.31248
    R2        2.10051  -0.00003   0.00000  -0.00008  -0.00007   2.10044
    R3        2.10051  -0.00003   0.00000  -0.00008  -0.00007   2.10044
    A1        2.12311  -0.00000   0.00002  -0.00004  -0.00003   2.12308
    A2        2.12311  -0.00000   0.00002  -0.00004  -0.00003   2.12308
    A3        2.03697   0.00001  -0.00004   0.00009   0.00005   2.03703
    D1        3.14159   0.00000   0.00000   0.00000   0.00000   3.14159
         Item               Value     Threshold  Converged?
 Maximum Force            0.000056     0.000002     NO 
 RMS     Force            0.000026     0.000001     NO 
 Maximum Displacement     0.000087     0.000006     NO 
 RMS     Displacement     0.000049     0.000004     NO 
 Predicted change in Energy=-3.993843D-09
 GradGradGradGradGradGradGradGradGradGradGradGradGradGradGradGradGradGrad

                          Input orientation:                          
 ---------------------------------------------------------------------
 Center     Atomic      Atomic             Coordinates (Angstroms)
 Number     Number       Type             X           Y           Z
 ---------------------------------------------------------------------
      1          8           0        0.000000   -0.000000   -0.026850
      2          6           0       -0.000000    0.000000    1.196863
      3          1           0        0.946256    0.000000    1.779993
      4          1           0       -0.946256   -0.000000    1.779993
 ---------------------------------------------------------------------
                    Distance matrix (angstroms):
                    1          2          3          4
     1  O    0.000000
     2  C    1.223713   0.000000
     3  H    2.039628   1.111504   0.000000
     4  H    2.039628   1.111504   1.892513   0.000000
 Stoichiometry    CH2O
 Framework group  C2V[C2(CO),SGV(H2)]
 Deg. of freedom     3
 Full point group                 C2V     NOp   4
 Largest Abelian subgroup         C2V     NOp   4
 Largest concise Abelian subgroup C2      NOp   2
                         Standard orientation:                         
 ---------------------------------------------------------------------
 Center     Atomic      Atomic             Coordinates (Angstroms)
 Number     Number       Type             X           Y           Z
 ---------------------------------------------------------------------
      1          8           0        0.000000   -0.000000    0.684748
      2          6           0       -0.000000    0.000000   -0.538965
      3          1           0       -0.000000    0.946256   -1.122096
      4          1           0       -0.000000   -0.946256   -1.122096
 ---------------------------------------------------------------------
 Rotational constants (GHZ):    196.1227107     34.0286932     28.9974315
 Standard basis: Aug-CC-pVDZ (5D, 7F)
 There are    33 symmetry adapted cartesian basis functions of A1  symmetry.
 There are     6 symmetry adapted cartesian basis functions of A2  symmetry.
 There are    12 symmetry adapted cartesian basis functions of B1  symmetry.
 There are    17 symmetry adapted cartesian basis functions of B2  symmetry.
 There are    29 symmetry adapted basis functions of A1  symmetry.
 There are     6 symmetry adapted basis functions of A2  symmetry.
 There are    12 symmetry adapted basis functions of B1  symmetry.
 There are    17 symmetry adapted basis functions of B2  symmetry.
    64 basis functions,   108 primitive gaussians,    68 cartesian basis functions
     8 alpha electrons        8 beta electrons
       nuclear repulsion energy        30.9007927698 Hartrees.
 NAtoms=    4 NActive=    4 NUniq=    3 SFac= 1.78D+00 NAtFMM=   60 NAOKFM=F Big=F
 Integral buffers will be    131072 words long.
 Raffenetti 1 integral format.
 Two-electron integral symmetry is turned on.
 One-electron integrals computed using PRISM.
 NBasis=    64 RedAO= T EigKep=  9.08D-04  NBF=    29     6    12    17
 NBsUse=    64 1.00D-06 EigRej= -1.00D+00 NBFU=    29     6    12    17
 Initial guess from the checkpoint file:  "OCHD_freq.chk"
 B after Tr=     0.000000   -0.000000    0.000000
         Rot=    1.000000    0.000000    0.000000   -0.000000 Ang=   0.00 deg.
 Initial guess orbital symmetries:
       Occupied  (A1) (A1) (A1) (A1) (B2) (A1) (B1) (B2)
       Virtual   (A1) (A1) (A1) (A1) (A1) (A1) (A1) (A1) (A1) (A1)
                 (A1) (A1) (A1) (A1) (A1) (A1) (A1) (A1) (A1) (A1)
                 (A1) (A1) (A1) (A1) (A2) (A2) (A2) (A2) (A2) (A2)
                 (B1) (B1) (B1) (B1) (B1) (B1) (B1) (B1) (B1) (B1)
                 (B1) (B2) (B2) (B2) (B2) (B2) (B2) (B2) (B2) (B2)
                 (B2) (B2) (B2) (B2) (B2) (B2)
 Keep R1 ints in memory in symmetry-blocked form, NReq=3059310.
 Requested convergence on RMS density matrix=1.00D-08 within 128 cycles.
 Requested convergence on MAX density matrix=1.00D-06.
 Requested convergence on             energy=1.00D-06.
 No special actions if energy rises.
 SCF Done:  E(RHF) =  -113.883148442     A.U. after    5 cycles
            NFock=  5  Conv=0.45D-08     -V/T= 2.0027
 ExpMin= 2.97D-02 ExpMax= 1.17D+04 ExpMxC= 4.01D+02 IAcc=3 IRadAn=         5 AccDes= 0.00D+00
 HarFok:  IExCor=  205 AccDes= 0.00D+00 IRadAn=         5 IDoV=-2 UseB2=F ITyADJ=14
 ICtDFT= 12500011 ScaDFX=  1.000000  1.000000  1.000000  1.000000
 Range of M.O.s used for correlation:     3    64
 NBasis=    64 NAE=     8 NBE=     8 NFC=     2 NFV=     0
 NROrb=     62 NOA=     6 NOB=     6 NVA=    56 NVB=    56

 **** Warning!!: The largest alpha MO coefficient is  0.11314628D+02

 Fully direct method using O(ONN) memory.
 JobTyp=1 Pass  1:  I=   3 to   8 NPSUse= 10 ParTrn=T ParDer=T DoDerP=T.
 Spin components of T(2) and E(2):
     alpha-alpha T2 =       0.1334917261D-01 E2=     -0.4186512063D-01
     alpha-beta  T2 =       0.8085057562D-01 E2=     -0.2519986645D+00
     beta-beta   T2 =       0.1334917261D-01 E2=     -0.4186512063D-01
 ANorm=    0.1052401502D+01
 E2 =    -0.3357289058D+00 EUMP2 =    -0.11421887734757D+03
          IDoAtm=1111
          Differentiating once with respect to electric field.
                with respect to dipole field.
          Differentiating once with respect to nuclear coordinates.
 Keep R1 ints in memory in symmetry-blocked form, NReq=3037835.
          There are     1 degrees of freedom in the 1st order CPHF.  IDoFFX=0 NUNeed=     1.
 LinEq1:  Iter=  0 NonCon=     1 RMS=8.48D-03 Max=7.92D-02 NDo=     1
 AX will form     1 AO Fock derivatives at one time.
 LinEq1:  Iter=  1 NonCon=     1 RMS=2.74D-03 Max=1.85D-02 NDo=     1
 LinEq1:  Iter=  2 NonCon=     1 RMS=8.12D-04 Max=6.71D-03 NDo=     1
 LinEq1:  Iter=  3 NonCon=     1 RMS=2.33D-04 Max=1.81D-03 NDo=     1
 LinEq1:  Iter=  4 NonCon=     1 RMS=5.91D-05 Max=4.18D-04 NDo=     1
 LinEq1:  Iter=  5 NonCon=     1 RMS=1.39D-05 Max=1.03D-04 NDo=     1
 LinEq1:  Iter=  6 NonCon=     1 RMS=2.83D-06 Max=2.09D-05 NDo=     1
 LinEq1:  Iter=  7 NonCon=     1 RMS=3.99D-07 Max=2.83D-06 NDo=     1
 LinEq1:  Iter=  8 NonCon=     1 RMS=4.31D-08 Max=2.17D-07 NDo=     1
 LinEq1:  Iter=  9 NonCon=     1 RMS=4.67D-09 Max=3.13D-08 NDo=     1
 LinEq1:  Iter= 10 NonCon=     1 RMS=4.16D-10 Max=2.24D-09 NDo=     1
 LinEq1:  Iter= 11 NonCon=     0 RMS=3.48D-11 Max=1.67D-10 NDo=     1
 Linear equations converged to 1.000D-10 1.000D-09 after    11 iterations.
 End of Minotr F.D. properties file   721 does not exist.
 End of Minotr F.D. properties file   722 does not exist.
 End of Minotr F.D. properties file   788 does not exist.
 Calling FoFJK, ICntrl=  10002127 FMM=F ISym2X=1 I1Cent= 0 IOpClX= 0 NMat=1 NMatS=1 NMatT=0.
 ***** Axes restored to original set *****
 -------------------------------------------------------------------
 Center     Atomic                   Forces (Hartrees/Bohr)
 Number     Number              X              Y              Z
 -------------------------------------------------------------------
      1        8           0.000000000   -0.000000000    0.000001999
      2        6          -0.000000000   -0.000000000    0.000001361
      3        1          -0.000002162    0.000000000   -0.000001680
      4        1           0.000002162    0.000000000   -0.000001680
 -------------------------------------------------------------------
 Cartesian Forces:  Max     0.000002162 RMS     0.000001318

 GradGradGradGradGradGradGradGradGradGradGradGradGradGradGradGradGradGrad
 Berny optimization.
 Using GEDIIS/GDIIS optimizer.
 FormGI is forming the generalized inverse of G from B-inverse, IUseBI=4.
 Internal  Forces:  Max     0.000002722 RMS     0.000001651
 Search for a local minimum.
 Step number   5 out of a maximum of   20
 All quantities printed in internal units (Hartrees-Bohrs-Radians)
 Mixed Optimization -- En-DIIS/RFO-DIIS
 Swapping is turned off.
 Update second derivatives using D2CorX and points    1    2    3    4    5
 DE=  5.98D-10 DEPred=-3.99D-09 R=-1.50D-01
 Trust test=-1.50D-01 RLast= 1.35D-04 DXMaxT set to 1.76D-01
 The second derivative matrix:
                          R1        R2        R3        A1        A2
           R1           0.81380
           R2           0.01586   0.35912
           R3           0.01586  -0.01318   0.35912
           A1           0.02426  -0.00756  -0.00756   0.15574
           A2           0.02426  -0.00756  -0.00756  -0.00426   0.15574
           A3          -0.04851   0.01512   0.01512   0.00852   0.00852
           D1          -0.00000   0.00000   0.00000   0.00000   0.00000
                          A3        D1
           A3           0.14297
           D1          -0.00000   0.00499
 ITU= -1  1  1  1  0
     Eigenvalues ---    0.00499   0.12571   0.16000   0.34865   0.37230
     Eigenvalues ---    0.81981
 En-DIIS/RFO-DIIS IScMMF=        0 using points:     5    4    3
 RFO step:  Lambda= 0.00000000D+00.
 DidBck=F Rises=F RFO-DIIS coefs:    1.07890   -0.07950    0.00060
 Iteration  1 RMS(Cart)=  0.00000418 RMS(Int)=  0.00000000
 Iteration  2 RMS(Cart)=  0.00000000 RMS(Int)=  0.00000000
 ClnCor:  largest displacement from symmetrization is 9.16D-14 for atom     2.
 Variable       Old X    -DE/DX   Delta X   Delta X   Delta X     New X
                                 (Linear)    (Quad)   (Total)
    R1        2.31248  -0.00000  -0.00000   0.00000  -0.00000   2.31248
    R2        2.10044  -0.00000  -0.00001  -0.00000  -0.00001   2.10043
    R3        2.10044  -0.00000  -0.00001  -0.00000  -0.00001   2.10043
    A1        2.12308  -0.00000  -0.00000   0.00000  -0.00000   2.12308
    A2        2.12308  -0.00000  -0.00000   0.00000  -0.00000   2.12308
    A3        2.03703   0.00000   0.00001  -0.00000   0.00000   2.03703
    D1        3.14159   0.00000   0.00000   0.00000   0.00000   3.14159
         Item               Value     Threshold  Converged?
 Maximum Force            0.000003     0.000002     NO 
 RMS     Force            0.000002     0.000001     NO 
 Maximum Displacement     0.000005     0.000006     YES
 RMS     Displacement     0.000004     0.000004     NO 
 Predicted change in Energy=-2.504316D-11
 GradGradGradGradGradGradGradGradGradGradGradGradGradGradGradGradGradGrad

                          Input orientation:                          
 ---------------------------------------------------------------------
 Center     Atomic      Atomic             Coordinates (Angstroms)
 Number     Number       Type             X           Y           Z
 ---------------------------------------------------------------------
      1          8           0        0.000000   -0.000000   -0.026847
      2          6           0       -0.000000    0.000000    1.196865
      3          1           0        0.946254    0.000000    1.779991
      4          1           0       -0.946254   -0.000000    1.779991
 ---------------------------------------------------------------------
                    Distance matrix (angstroms):
                    1          2          3          4
     1  O    0.000000
     2  C    1.223712   0.000000
     3  H    2.039623   1.111500   0.000000
     4  H    2.039623   1.111500   1.892508   0.000000
 Stoichiometry    CH2O
 Framework group  C2V[C2(CO),SGV(H2)]
 Deg. of freedom     3
 Full point group                 C2V     NOp   4
 Largest Abelian subgroup         C2V     NOp   4
 Largest concise Abelian subgroup C2      NOp   2
                         Standard orientation:                         
 ---------------------------------------------------------------------
 Center     Atomic      Atomic             Coordinates (Angstroms)
 Number     Number       Type             X           Y           Z
 ---------------------------------------------------------------------
      1          8           0       -0.000000    0.000000    0.684747
      2          6           0        0.000000    0.000000   -0.538965
      3          1           0        0.000000    0.946254   -1.122091
      4          1           0       -0.000000   -0.946254   -1.122091
 ---------------------------------------------------------------------
 Rotational constants (GHZ):    196.1236716     34.0288076     28.9975355
 Standard basis: Aug-CC-pVDZ (5D, 7F)
 There are    33 symmetry adapted cartesian basis functions of A1  symmetry.
 There are     6 symmetry adapted cartesian basis functions of A2  symmetry.
 There are    12 symmetry adapted cartesian basis functions of B1  symmetry.
 There are    17 symmetry adapted cartesian basis functions of B2  symmetry.
 There are    29 symmetry adapted basis functions of A1  symmetry.
 There are     6 symmetry adapted basis functions of A2  symmetry.
 There are    12 symmetry adapted basis functions of B1  symmetry.
 There are    17 symmetry adapted basis functions of B2  symmetry.
    64 basis functions,   108 primitive gaussians,    68 cartesian basis functions
     8 alpha electrons        8 beta electrons
       nuclear repulsion energy        30.9008427093 Hartrees.
 NAtoms=    4 NActive=    4 NUniq=    3 SFac= 1.78D+00 NAtFMM=   60 NAOKFM=F Big=F
 Integral buffers will be    131072 words long.
 Raffenetti 1 integral format.
 Two-electron integral symmetry is turned on.
 One-electron integrals computed using PRISM.
 NBasis=    64 RedAO= T EigKep=  9.08D-04  NBF=    29     6    12    17
 NBsUse=    64 1.00D-06 EigRej= -1.00D+00 NBFU=    29     6    12    17
 Initial guess from the checkpoint file:  "OCHD_freq.chk"
 B after Tr=     0.000000    0.000000   -0.000000
         Rot=    1.000000   -0.000000   -0.000000    0.000000 Ang=   0.00 deg.
 Initial guess orbital symmetries:
       Occupied  (A1) (A1) (A1) (A1) (B2) (A1) (B1) (B2)
       Virtual   (A1) (A1) (A1) (A1) (A1) (A1) (A1) (A1) (A1) (A1)
                 (A1) (A1) (A1) (A1) (A1) (A1) (A1) (A1) (A1) (A1)
                 (A1) (A1) (A1) (A1) (A2) (A2) (A2) (A2) (A2) (A2)
                 (B1) (B1) (B1) (B1) (B1) (B1) (B1) (B1) (B1) (B1)
                 (B1) (B2) (B2) (B2) (B2) (B2) (B2) (B2) (B2) (B2)
                 (B2) (B2) (B2) (B2) (B2) (B2)
 Keep R1 ints in memory in symmetry-blocked form, NReq=3059310.
 Requested convergence on RMS density matrix=1.00D-08 within 128 cycles.
 Requested convergence on MAX density matrix=1.00D-06.
 Requested convergence on             energy=1.00D-06.
 No special actions if energy rises.
 SCF Done:  E(RHF) =  -113.883148743     A.U. after    3 cycles
            NFock=  3  Conv=0.41D-08     -V/T= 2.0027
 ExpMin= 2.97D-02 ExpMax= 1.17D+04 ExpMxC= 4.01D+02 IAcc=3 IRadAn=         5 AccDes= 0.00D+00
 HarFok:  IExCor=  205 AccDes= 0.00D+00 IRadAn=         5 IDoV=-2 UseB2=F ITyADJ=14
 ICtDFT= 12500011 ScaDFX=  1.000000  1.000000  1.000000  1.000000
 Range of M.O.s used for correlation:     3    64
 NBasis=    64 NAE=     8 NBE=     8 NFC=     2 NFV=     0
 NROrb=     62 NOA=     6 NOB=     6 NVA=    56 NVB=    56

 **** Warning!!: The largest alpha MO coefficient is  0.11314694D+02

 Fully direct method using O(ONN) memory.
 JobTyp=1 Pass  1:  I=   3 to   8 NPSUse= 10 ParTrn=T ParDer=T DoDerP=T.
 Spin components of T(2) and E(2):
     alpha-alpha T2 =       0.1334914277D-01 E2=     -0.4186508828D-01
     alpha-beta  T2 =       0.8085036464D-01 E2=     -0.2519984389D+00
     beta-beta   T2 =       0.1334914277D-01 E2=     -0.4186508828D-01
 ANorm=    0.1052401373D+01
 E2 =    -0.3357286155D+00 EUMP2 =    -0.11421887735810D+03
          IDoAtm=1111
          Differentiating once with respect to electric field.
                with respect to dipole field.
          Differentiating once with respect to nuclear coordinates.
 Keep R1 ints in memory in symmetry-blocked form, NReq=3037835.
          There are     1 degrees of freedom in the 1st order CPHF.  IDoFFX=0 NUNeed=     1.
 LinEq1:  Iter=  0 NonCon=     1 RMS=8.48D-03 Max=7.92D-02 NDo=     1
 AX will form     1 AO Fock derivatives at one time.
 LinEq1:  Iter=  1 NonCon=     1 RMS=2.74D-03 Max=1.85D-02 NDo=     1
 LinEq1:  Iter=  2 NonCon=     1 RMS=8.12D-04 Max=6.71D-03 NDo=     1
 LinEq1:  Iter=  3 NonCon=     1 RMS=2.33D-04 Max=1.81D-03 NDo=     1
 LinEq1:  Iter=  4 NonCon=     1 RMS=5.91D-05 Max=4.18D-04 NDo=     1
 LinEq1:  Iter=  5 NonCon=     1 RMS=1.39D-05 Max=1.03D-04 NDo=     1
 LinEq1:  Iter=  6 NonCon=     1 RMS=2.83D-06 Max=2.09D-05 NDo=     1
 LinEq1:  Iter=  7 NonCon=     1 RMS=3.99D-07 Max=2.83D-06 NDo=     1
 LinEq1:  Iter=  8 NonCon=     1 RMS=4.31D-08 Max=2.17D-07 NDo=     1
 LinEq1:  Iter=  9 NonCon=     1 RMS=4.67D-09 Max=3.13D-08 NDo=     1
 LinEq1:  Iter= 10 NonCon=     1 RMS=4.16D-10 Max=2.24D-09 NDo=     1
 LinEq1:  Iter= 11 NonCon=     0 RMS=3.48D-11 Max=1.67D-10 NDo=     1
 Linear equations converged to 1.000D-10 1.000D-09 after    11 iterations.
 End of Minotr F.D. properties file   721 does not exist.
 End of Minotr F.D. properties file   722 does not exist.
 End of Minotr F.D. properties file   788 does not exist.
 Calling FoFJK, ICntrl=  10002127 FMM=F ISym2X=1 I1Cent= 0 IOpClX= 0 NMat=1 NMatS=1 NMatT=0.
 ***** Axes restored to original set *****
 -------------------------------------------------------------------
 Center     Atomic                   Forces (Hartrees/Bohr)
 Number     Number              X              Y              Z
 -------------------------------------------------------------------
      1        8           0.000000000   -0.000000000   -0.000000138
      2        6           0.000000000   -0.000000000    0.000000140
      3        1          -0.000000079    0.000000000   -0.000000001
      4        1           0.000000079    0.000000000   -0.000000001
 -------------------------------------------------------------------
 Cartesian Forces:  Max     0.000000140 RMS     0.000000065

 GradGradGradGradGradGradGradGradGradGradGradGradGradGradGradGradGradGrad
 Berny optimization.
 Using GEDIIS/GDIIS optimizer.
 FormGI is forming the generalized inverse of G from B-inverse, IUseBI=4.
 Internal  Forces:  Max     0.000000138 RMS     0.000000069
 Search for a local minimum.
 Step number   6 out of a maximum of   20
 All quantities printed in internal units (Hartrees-Bohrs-Radians)
 Mixed Optimization -- En-DIIS/RFO-DIIS
 Swapping is turned off.
 Update second derivatives using D2CorX and points    1    2    3    4    5
                                                      6
 DE= -1.05D-08 DEPred=-2.50D-11 R= 4.20D+02
 Trust test= 4.20D+02 RLast= 1.27D-05 DXMaxT set to 1.76D-01
 The second derivative matrix:
                          R1        R2        R3        A1        A2
           R1           0.82919
           R2           0.02157   0.35312
           R3           0.02157  -0.01918   0.35312
           A1           0.02683  -0.00637  -0.00637   0.15616
           A2           0.02683  -0.00637  -0.00637  -0.00384   0.15616
           A3          -0.05366   0.01274   0.01274   0.00768   0.00768
           D1          -0.00000  -0.00000  -0.00000   0.00000   0.00000
                          A3        D1
           A3           0.14464
           D1          -0.00000   0.00499
 ITU=  0 -1  1  1  1  0
     Eigenvalues ---    0.00499   0.12776   0.16000   0.33536   0.37230
     Eigenvalues ---    0.83697
 En-DIIS/RFO-DIIS IScMMF=        0 using points:     6    5    4    3
 RFO step:  Lambda= 0.00000000D+00.
 DidBck=F Rises=F RFO-DIIS coefs:    1.11641   -0.12600    0.00966   -0.00007
 Iteration  1 RMS(Cart)=  0.00000023 RMS(Int)=  0.00000000
 ClnCor:  largest displacement from symmetrization is 4.58D-14 for atom     2.
 Variable       Old X    -DE/DX   Delta X   Delta X   Delta X     New X
                                 (Linear)    (Quad)   (Total)
    R1        2.31248   0.00000   0.00000  -0.00000   0.00000   2.31248
    R2        2.10043  -0.00000  -0.00000   0.00000  -0.00000   2.10043
    R3        2.10043  -0.00000  -0.00000  -0.00000  -0.00000   2.10043
    A1        2.12308   0.00000   0.00000   0.00000   0.00000   2.12308
    A2        2.12308   0.00000   0.00000  -0.00000   0.00000   2.12308
    A3        2.03703  -0.00000  -0.00000   0.00000  -0.00000   2.03703
    D1        3.14159   0.00000   0.00000   0.00000   0.00000   3.14159
         Item               Value     Threshold  Converged?
 Maximum Force            0.000000     0.000002     YES
 RMS     Force            0.000000     0.000001     YES
 Maximum Displacement     0.000000     0.000006     YES
 RMS     Displacement     0.000000     0.000004     YES
 Predicted change in Energy=-3.610528D-14
 Optimization completed.
    -- Stationary point found.
                           ----------------------------
                           !   Optimized Parameters   !
                           ! (Angstroms and Degrees)  !
 --------------------------                            --------------------------
 ! Name  Definition              Value          Derivative Info.                !
 --------------------------------------------------------------------------------
 ! R1    R(1,2)                  1.2237         -DE/DX =    0.0                 !
 ! R2    R(2,3)                  1.1115         -DE/DX =    0.0                 !
 ! R3    R(2,4)                  1.1115         -DE/DX =    0.0                 !
 ! A1    A(1,2,3)              121.6433         -DE/DX =    0.0                 !
 ! A2    A(1,2,4)              121.6433         -DE/DX =    0.0                 !
 ! A3    A(3,2,4)              116.7133         -DE/DX =    0.0                 !
 ! D1    D(1,2,4,3)            180.0            -DE/DX =    0.0                 !
 --------------------------------------------------------------------------------
 GradGradGradGradGradGradGradGradGradGradGradGradGradGradGradGradGradGrad

                          Input orientation:                          
 ---------------------------------------------------------------------
 Center     Atomic      Atomic             Coordinates (Angstroms)
 Number     Number       Type             X           Y           Z
 ---------------------------------------------------------------------
      1          8           0        0.000000   -0.000000   -0.026847
      2          6           0       -0.000000    0.000000    1.196865
      3          1           0        0.946254    0.000000    1.779991
      4          1           0       -0.946254   -0.000000    1.779991
 ---------------------------------------------------------------------
                    Distance matrix (angstroms):
                    1          2          3          4
     1  O    0.000000
     2  C    1.223712   0.000000
     3  H    2.039623   1.111500   0.000000
     4  H    2.039623   1.111500   1.892508   0.000000
 Stoichiometry    CH2O
 Framework group  C2V[C2(CO),SGV(H2)]
 Deg. of freedom     3
 Full point group                 C2V     NOp   4
 Largest Abelian subgroup         C2V     NOp   4
 Largest concise Abelian subgroup C2      NOp   2
                         Standard orientation:                         
 ---------------------------------------------------------------------
 Center     Atomic      Atomic             Coordinates (Angstroms)
 Number     Number       Type             X           Y           Z
 ---------------------------------------------------------------------
      1          8           0        0.000000    0.000000    0.684747
      2          6           0       -0.000000   -0.000000   -0.538965
      3          1           0       -0.000000    0.946254   -1.122091
      4          1           0       -0.000000   -0.946254   -1.122091
 ---------------------------------------------------------------------
 Rotational constants (GHZ):    196.1236716     34.0288076     28.9975355

 **********************************************************************

            Population analysis using the MP2 density.

 **********************************************************************

 Orbital symmetries:
       Occupied  (A1) (A1) (A1) (A1) (B2) (A1) (B1) (B2)
       Virtual   (A1) (B2) (B1) (A1) (B1) (B2) (A1) (A1) (A1) (B2)
                 (B1) (A1) (A2) (B2) (A1) (B1) (B2) (A1) (B2) (A1)
                 (A2) (B1) (A1) (B2) (A1) (B1) (A1) (B2) (A1) (A2)
                 (B2) (B1) (A1) (A1) (A2) (B2) (B1) (A1) (B2) (B1)
                 (A1) (B2) (A1) (B1) (A1) (A2) (B2) (A1) (A1) (B2)
                 (A1) (A2) (A1) (B1) (B2) (A1)
 The electronic state is 1-A1.
 Alpha  occ. eigenvalues --  -20.59051 -11.35770  -1.40077  -0.87198  -0.68971
 Alpha  occ. eigenvalues --   -0.64880  -0.53071  -0.44424
 Alpha virt. eigenvalues --    0.03259   0.05049   0.06744   0.08958   0.14523
 Alpha virt. eigenvalues --    0.15552   0.15977   0.21957   0.25512   0.26566
 Alpha virt. eigenvalues --    0.26732   0.32233   0.34085   0.35321   0.44533
 Alpha virt. eigenvalues --    0.45016   0.46708   0.51165   0.55049   0.55373
 Alpha virt. eigenvalues --    0.59477   0.61603   0.63974   0.67905   0.74692
 Alpha virt. eigenvalues --    0.84267   0.88907   0.99379   1.05182   1.20815
 Alpha virt. eigenvalues --    1.21469   1.22637   1.27310   1.41889   1.49229
 Alpha virt. eigenvalues --    1.49270   1.62348   1.62536   1.80913   1.81591
 Alpha virt. eigenvalues --    1.93765   1.94761   2.06640   2.13472   2.16790
 Alpha virt. eigenvalues --    2.21339   2.36957   2.52860   2.64648   2.91556
 Alpha virt. eigenvalues --    3.27873   3.68708   3.69665   3.73734   3.87447
 Alpha virt. eigenvalues --    4.02589
          Condensed to atoms (all electrons):
               1          2          3          4
     1  O    8.171066   0.276284  -0.025013  -0.025013
     2  C    0.276284   4.534505   0.286496   0.286496
     3  H   -0.025013   0.286496   0.983067  -0.135102
     4  H   -0.025013   0.286496  -0.135102   0.983067
 Mulliken charges:
               1
     1  O   -0.397323
     2  C    0.616220
     3  H   -0.109448
     4  H   -0.109448
 Sum of Mulliken charges =  -0.00000
 Mulliken charges with hydrogens summed into heavy atoms:
               1
     1  O   -0.397323
     2  C    0.397323
 Electronic spatial extent (au):  <R**2>=             62.0540
 Charge=             -0.0000 electrons
 Dipole moment (field-independent basis, Debye):
    X=              0.0000    Y=              0.0000    Z=             -2.4114  Tot=              2.4114
 Quadrupole moment (field-independent basis, Debye-Ang):
   XX=            -11.9310   YY=            -11.9077   ZZ=            -12.5407
   XY=             -0.0000   XZ=             -0.0000   YZ=             -0.0000
 Traceless Quadrupole moment (field-independent basis, Debye-Ang):
   XX=              0.1955   YY=              0.2187   ZZ=             -0.4143
   XY=             -0.0000   XZ=             -0.0000   YZ=             -0.0000
 Octapole moment (field-independent basis, Debye-Ang**2):
  XXX=              0.0000  YYY=              0.0000  ZZZ=              0.5906  XYY=              0.0000
  XXY=              0.0000  XXZ=              0.6793  XZZ=              0.0000  YZZ=              0.0000
  YYZ=             -0.6857  XYZ=             -0.0000
 Hexadecapole moment (field-independent basis, Debye-Ang**3):
 XXXX=            -11.0340 YYYY=            -19.3029 ZZZZ=            -48.8139 XXXY=             -0.0000
 XXXZ=             -0.0000 YYYX=             -0.0000 YYYZ=             -0.0000 ZZZX=             -0.0000
[...]
                    Harmonic value     SPT anharmonic value
 Qvib               0.32759D-01          0.36717D-01
 QZvib              0.49675D+01          0.52377D+01
 Energy             0.13096D+03          0.13090D+03         kJ/mol
 Enthalpy           0.14343D+03          0.14337D+03         kJ/mol
 Entropy            0.30905D+03          0.30995D+03         J/(mol K)
 Sp.Heat(V)         0.64143D+02          0.64651D+02         J/(mol K)
 Sp.Heat(P)         0.72457D+02          0.72966D+02         J/(mol K)

 T = 2000.00 K;  P =   1.00 atm
                    Harmonic value     SPT anharmonic value
 Qvib               0.25696D+00          0.28822D+00
 QZvib              0.11104D+02          0.11897D+02
 Energy             0.16417D+03          0.16431D+03         kJ/mol
 Enthalpy           0.18080D+03          0.18094D+03         kJ/mol
 Entropy            0.33051D+03          0.33154D+03         J/(mol K)
 Sp.Heat(V)         0.68216D+02          0.68575D+02         J/(mol K)
 Sp.Heat(P)         0.76531D+02          0.76889D+02         J/(mol K)

     ==================================================
               Anharmonic Transition Moments
     ==================================================

 Electric dipole : Fundamental Bands
 ------------------------------------------------------------------------
  Mode(Quanta)             X                 Y                 Z
    1(1)               -0.218227E-15      0.148305E-01      0.379868E-16
    2(1)               -0.363853E-01     -0.106573E-15     -0.263252E-01
    3(1)               -0.293169E-01      0.842982E-17      0.319943E-01
    4(1)                0.416610E-02      0.642855E-16      0.471531E-01
    5(1)                0.826711E-02      0.494378E-16      0.126064E-01
    6(1)               -0.231331E-01     -0.624938E-16      0.336855E-02

 Electric dipole : Overtones
 ------------------------------------------------------------------------
  Mode(Quanta)             X                 Y                 Z
    1(2)                0.120153E-02      0.127307E-16     -0.489125E-02
    2(2)               -0.189820E-02      0.116775E-16     -0.207478E-02
    3(2)                0.186259E-02     -0.121302E-17     -0.192480E-02
    4(2)               -0.118427E-02     -0.629162E-17     -0.913225E-02
    5(2)               -0.303322E-02     -0.257216E-18     -0.393183E-02
    6(2)               -0.493418E-02      0.177556E-17      0.547985E-02

 Electric dipole : Combination Bands
 ------------------------------------------------------------------------
  Mode(Quanta)             X                 Y                 Z
    2(1)    1(1)       -0.382307E-17     -0.967440E-03      0.665482E-18
    3(1)    1(1)        0.164170E-17     -0.117453E-03     -0.285771E-18
    3(1)    2(1)        0.108581E-02     -0.143331E-17     -0.215589E-02
    4(1)    1(1)        0.460214E-18      0.292139E-02     -0.801095E-19
    4(1)    2(1)        0.568206E-02     -0.112265E-17      0.344170E-02
    4(1)    3(1)        0.402578E-02     -0.239324E-17     -0.516947E-02
    5(1)    1(1)       -0.119105E-17     -0.235231E-03      0.207327E-18
    5(1)    2(1)       -0.159380E-02      0.186770E-17      0.613866E-03
    5(1)    3(1)       -0.140734E-02      0.362561E-17      0.122199E-02
    5(1)    4(1)        0.248582E-03     -0.194164E-17     -0.341842E-03
    6(1)    1(1)       -0.134165E-17     -0.630017E-03      0.233542E-18
    6(1)    2(1)       -0.209481E-02      0.942600E-18     -0.100764E-02
    6(1)    3(1)        0.108296E-02      0.400447E-17     -0.443458E-04
    6(1)    4(1)        0.180215E-02      0.763550E-17      0.317198E-02
    6(1)    5(1)        0.474779E-03     -0.627421E-17     -0.264269E-02
 ERROR: Missing derivatives of the polarizability tensor moment.

     ==================================================
              Anharmonic Infrared Spectroscopy
     ==================================================

 Units: Energies (E) in cm^-1
        Integrated intensity (I) in km.mol^-1

 Fundamental Bands
 -----------------
    Mode(Quanta)       E(harm)   E(anharm)       I(harm)        I(anharm)
     1(1)              1076.474   1058.211      3.74553684      3.76910388
     2(1)              3022.813   2881.940     83.56415737     94.12994898
     3(1)              2221.268   2152.210     64.13392857     65.63242973
     4(1)              1701.548   1673.311     61.38348654     60.72000871
     5(1)              1417.539   1388.280      5.52915948      5.10941134
     6(1)              1030.681   1015.305      8.76141155      8.98534343

 Overtones
 ---------
    Mode(Quanta)       E(harm)   E(anharm)                      I(anharm)
     1(2)              2152.949   2098.305                      0.86200821
     2(2)              6045.626   5574.482                      0.71387386
     3(2)              4442.536   4203.337                      0.48833666
     4(2)              3403.097   3327.254                      4.56921296
     5(2)              2835.078   2744.748                      1.09609427
     6(2)              2061.363   2022.956                      1.78131873

 Combination Bands
 -----------------
    Mode(Quanta)       E(harm)   E(anharm)                      I(anharm)
     2(1)     1(1)     4099.287   3896.226                      0.05905402
     3(1)     1(1)     3297.743   3183.261                      0.00071114
     3(1)     2(1)     5244.081   4990.144                      0.47087174
     4(1)     1(1)     2778.023   2725.597                      0.37670202
     4(1)     2(1)     4724.361   4529.189                      3.23684622
     4(1)     3(1)     3922.817   3809.397                      2.64835899
     5(1)     1(1)     2494.013   2448.626                      0.00219416
     5(1)     2(1)     4440.352   4192.841                      0.19806471
     5(1)     3(1)     3638.807   3518.724                      0.19794967
     5(1)     4(1)     3119.087   3060.953                      0.00885550
     6(1)     1(1)     2107.156   2074.925                      0.01333716
     6(1)     2(1)     4053.494   3866.190                      0.33831444
     6(1)     3(1)     3251.950   3146.116                      0.05985283
     6(1)     4(1)     2732.230   2681.778                      0.57800599
     6(1)     5(1)     2448.220   2403.196                      0.28056537


 GradGradGradGradGradGradGradGradGradGradGradGradGradGradGradGradGradGrad
 Berny optimization.
 Internal  Forces:  Max     0.000000164 RMS     0.000000082
 Search for a local minimum.
 Step number   1 out of a maximum of    2
 All quantities printed in internal units (Hartrees-Bohrs-Radians)
 Second derivative matrix not updated -- analytic derivatives used.
 The second derivative matrix:
                          R1        R2        R3        A1        A2
           R1           0.78932
           R2           0.03121   0.32325
           R3           0.03121   0.00380   0.32325
           A1           0.01941   0.00164  -0.01076   0.11491
           A2           0.01941  -0.01076   0.00164  -0.07206   0.11491
           A3          -0.03881   0.00912   0.00912  -0.04285  -0.04285
           D1          -0.00000   0.00000   0.00000  -0.00000   0.00000
                          A3        D1
           A3           0.08570
           D1           0.00000   0.06794
 ITU=  0
     Eigenvalues ---    0.06794   0.12336   0.18582   0.32060   0.32490
     Eigenvalues ---    0.79665
 Angle between quadratic step and forces=  90.00 degrees.
 Linear search not attempted -- first point.
 Iteration  1 RMS(Cart)=  0.00000024 RMS(Int)=  0.00000000
 ClnCor:  largest displacement from symmetrization is 2.13D-15 for atom     2.
 Variable       Old X    -DE/DX   Delta X   Delta X   Delta X     New X
                                 (Linear)    (Quad)   (Total)
    R1        2.31248   0.00000   0.00000   0.00000   0.00000   2.31248
    R2        2.10043  -0.00000   0.00000  -0.00000  -0.00000   2.10043
    R3        2.10043  -0.00000   0.00000  -0.00000  -0.00000   2.10043
    A1        2.12308   0.00000   0.00000   0.00000   0.00000   2.12308
    A2        2.12308   0.00000   0.00000   0.00000   0.00000   2.12308
    A3        2.03703  -0.00000   0.00000  -0.00000  -0.00000   2.03703
    D1        3.14159   0.00000   0.00000   0.00000   0.00000   3.14159
         Item               Value     Threshold  Converged?
 Maximum Force            0.000000     0.000002     YES
 RMS     Force            0.000000     0.000001     YES
 Maximum Displacement     0.000000     0.000006     YES
 RMS     Displacement     0.000000     0.000004     YES
 Predicted change in Energy=-5.388322D-14
 Optimization completed.
    -- Stationary point found.
                           ----------------------------
                           !   Optimized Parameters   !
                           ! (Angstroms and Degrees)  !
 --------------------------                            --------------------------
 ! Name  Definition              Value          Derivative Info.                !
 --------------------------------------------------------------------------------
 ! R1    R(1,2)                  1.2237         -DE/DX =    0.0                 !
 ! R2    R(2,3)                  1.1115         -DE/DX =    0.0                 !
 ! R3    R(2,4)                  1.1115         -DE/DX =    0.0                 !
 ! A1    A(1,2,3)              121.6433         -DE/DX =    0.0                 !
 ! A2    A(1,2,4)              121.6433         -DE/DX =    0.0                 !
 ! A3    A(3,2,4)              116.7133         -DE/DX =    0.0                 !
 ! D1    D(1,2,4,3)            180.0            -DE/DX =    0.0                 !
 --------------------------------------------------------------------------------
 GradGradGradGradGradGradGradGradGradGradGradGradGradGradGradGradGradGrad

 1\1\GINC-ARGON\Freq\RMP2-FC\Aug-CC-pVDZ\C1H2O1\B3M2A1\02-Oct-2020\0\\#
 N Geom=AllCheck Guess=TCheck SCRF=Check GenChk RMP2(FC)/Aug-CC-pVDZ Fr
 eq\\Formaldahyde freq\\0,1\O,0.,0.,-0.026846982\C,0.,0.,1.1968648104\H
 ,0.9462538724,0.,1.7799910858\H,-0.9462538724,0.,1.7799910858\\Version
 =ES64L-G09RevE.01\State=1-A1\HF=-113.8831487\MP2=-114.2188773\RMSD=2.6
 56e-09\RMSF=8.388e-08\ZeroPoint=0.0238532\Thermal=0.026755\Dipole=0.,0
 .,0.9487362\DipoleDeriv=-0.4342531,0.,0.,0.,-0.3184786,0.,0.,0.,-0.744
 5184,0.755278,0.,0.,0.,0.1258556,0.,0.,0.,0.874484,-0.1605125,0.,-0.14
 40268,0.,0.0963115,0.,-0.0834063,0.,-0.0649828,-0.1605125,0.,0.1440268
 ,0.,0.0963115,0.,0.0834063,0.,-0.0649828\Polar=17.5881634,0.,12.631466
 3,0.,0.,22.5296056\Quadrupole=0.1626319,0.1453598,-0.3079917,0.,0.,0.\
 PG=C02V [C2(C1O1),SGV(H2)]\NImag=0\\0.06992937,0.,0.01752963,0.,0.,0.7
 8932096,-0.10118320,0.,0.,0.60826166,0.,-0.05431628,0.,0.,0.16830112,0
 .,0.,-0.70937755,0.,0.,0.91289467,0.01562691,0.,-0.01203040,-0.2535392
 3,0.,-0.08914366,0.25531823,0.,0.01839333,0.,0.,-0.05699242,0.,0.,0.01
 929957,-0.03558693,0.,-0.03997171,-0.09081687,0.,-0.10175856,0.1137889
 3,0.,0.13282397,0.01562691,0.,0.01203040,-0.25353923,0.,0.08914366,-0.
 01740592,0.,0.01261486,0.25531823,0.,0.01839333,0.,0.,-0.05699242,0.,0
 .,0.01929953,0.,0.,0.01929957,0.03558693,0.,-0.03997171,0.09081687,0.,
 -0.10175856,-0.01261486,0.,0.00890629,-0.11378893,0.,0.13282397\\0.,0.
 ,0.00000016,0.,0.,-0.00000020,0.00000010,0.,0.00000002,-0.00000010,0.,
 0.00000002\\0.00102722,0.,0.01121375,-0.00354795,0.,-0.05246404,-0.003
 40536,0.,0.01197109,-0.06366713,0.,-0.00651533,0.,0.,0.01111861,0.0280
 9942,0.,0.03786932,-0.06653799,0.,-0.00392161,-0.00294532,0.,-0.002063
 17,-0.00452001,0.,0.01939430,0.01832734,0.,0.00755987,0.,0.,-0.0096240
 9,0.,0.,-0.00247001,-0.00603750,0.,-0.01678148,0.02106605,0.,0.0295888
 1,-0.01915362,0.,-0.01337942,0.00532346,0.,-0.00635998,0.07159250,0.,0
 .01904426,-0.01086201,0.,0.00412507,-0.06605396,0.,-0.01225829,0.,0.,0
 .00502081,0.,0.,0.00453423,0.,0.,0.00270326,-0.01851397,0.,0.03137619,
 0.03350084,0.,-0.06353653,0.00182249,0.,0.00057209,-0.01680936,0.,0.03
 158825,-0.00000019,0.00481841,0.00000024,0.,-0.02782755,0.00000039,0.0
 0000039,-0.00430983,0.,-0.00000053,-0.00430948,-0.00000019,0.01380526,
 0.04043703,0.00000014,0.,0.03819651,-0.00000057,0.,0.05555401,0.000000
 72,-0.00000010,-0.00421863,-0.00000002,0.00000007,-0.06387967,0.000000
 05,-0.00000009,0.00169994,-0.00000003,0.00590421,-0.09292658,0.0000000
 2,-0.05506599,0.08303799,0.,0.00000006,-0.00845681,0.00000009,-0.00000
 009,-0.04302483,-0.00000007,0.,0.05159079,-0.00000002,-0.00000010,0.00
 371005,0.00000002,0.00000007,0.02775212,-0.00000005,0.00000012,0.00818
 865,0.00000003,-0.00000009,-0.00220887,-0.00000003,0.00811808,0.056799
 38,0.00000003,-0.03868452,-0.01493969,0.,-0.00010915,-0.03965082,0.,-0
 .00000006,-0.00191215,0.00000009,0.00000009,-0.02633443,-0.00000007,-0
 .00000003,-0.00242901,0.,0.,0.03067559,-0.00000002,0.00816177,0.,0.035
 76364,-0.01866149,0.,-0.20209481,-0.01444019,0.,0.00923606,-0.11741153
 ,0.,-0.02316791,0.,0.,0.02902542,-0.00245933,0.,0.16304820,0.03957664,
 0.,-0.06619445,0.00755356,0.,0.01176250,0.09874839,0.,-0.03090104,-0.0
 7878499,0.,-0.01349744,0.,0.,0.00241697,0.,0.,-0.00092594,0.02708454,0
 .,0.03561480,-0.05310942,0.,-0.08761604,0.02551652,0.,0.05021875,-0.00
 127513,0.,-0.00233707,0.03310333,0.,-0.00621626,-0.02751696,0.,0.00050
 836,-0.00431124,0.,0.00090171,0.,0.,-0.00827448,0.,0.,0.01200640,0.,0.
 ,-0.00463363,-0.00596372,0.,0.00343181,0.00429672,0.,-0.00923770,-0.00
 637798,0.,0.00178249,0.00804498,0.,0.00402340,0.08462374,0.,0.10436993
 ,0.00723598,0.,-1.00503234,-0.07258449,0.,-0.00917687,0.11768627,0.,-0
 .08901603,0.,0.,0.06932030,-0.00424070,0.,0.97895105,0.04076786,0.,-1.
 02309167,-0.00614354,0.,0.01446910,-0.05121377,0.,-0.01417070,0.037516
 64,0.,-0.00683607,0.,0.,0.01386655,0.,0.,0.00193566,0.01070624,0.,0.01
 213018,-0.00840528,0.,0.01769449,-0.00241518,0.,-0.02850593,-0.0058957
 1,0.,-0.01252821,0.00611200,0.,-0.02235646,0.01984067,0.,0.00011423,-0
 .02005695,0.,-0.00851782,0.,0.,0.00582918,0.,0.,-0.00896614,0.,0.,0.01
 165477,-0.01370152,0.,0.01395110,-0.02318571,0.,0.02644613,0.00211679,
 0.,-0.00131874,0.03477044,0.,-0.03907850,0.01661304,0.,0.01761571,-0.0
 2773566,0.,-0.20266601,-0.02729177,0.,0.05951216,0.63317607,0.,-0.0240
 3608,0.,0.,-0.05257833,0.02133875,0.,0.20701580,-0.42658315,0.,-0.0452
 1734,0.00081306,0.,-0.00449042,-0.05633309,0.,0.00738532,0.05962813,0.
 ,0.00139208,0.,0.,-0.00618274,0.,0.,-0.00524375,-0.00196217,0.,-0.0058
 9300,-0.01011753,0.,0.00426680,0.01197489,0.,-0.00378756,0.00986567,0.
 ,-0.02728608,-0.54955121,0.,0.39785908,-0.00410811,0.,0.00010482,0.543
 79366,0.,0.00502829,0.,0.,0.08279715,0.,0.,0.01003442,0.,0.,-0.0978598
 5,0.00835907,0.,0.00154321,0.37718853,0.,-0.16606526,-0.01486978,0.,0.
 00541376,-0.37067782,0.,0.15910829,-0.00236225,0.,0.00053003,-0.032239
 12,0.,0.03420057,0.01744859,0.,0.08202055,-0.72562246,0.,0.01022562,0.
 ,0.,0.07650258,0.01927996,0.,-0.04474132,-0.65082758,0.,-0.15562350,-0
 .01455153,0.,-0.03561016,0.74451552,0.,0.54771423,-0.73883401,0.,-0.01
 006787,0.,0.,-0.11165031,0.,0.,0.13540578,0.01510741,0.,0.00463012,0.5
 1511923,0.,0.22742729,-0.50944342,0.,-0.22538561,-0.00053481,0.,-0.014
 17126,-0.03634165,0.,0.08383339,0.00887002,0.,-0.02078322,0.02800645,0
 .,-0.00068778,0.,0.,0.02492210,0.,0.,-0.01368760,0.,0.,-0.01054672,-0.
 00214824,0.,0.00591063,0.05368780,0.,-0.02706247,-0.00266065,0.,-0.006
 67181,-0.04887891,0.,0.02782365,-0.00456808,0.,-0.01357274,-0.00452660
 ,0.,-0.03351938,0.01620344,0.,-0.01435591,-0.19712618,0.,0.01007337,0.
 ,0.,0.00231261,0.00672694,0.,0.05529952,0.12485040,0.,-0.11892636,0.00
 133462,0.,-0.00660257,0.02179296,0.,0.00632389,-0.02536411,0.,0.000013
 23,0.,0.,0.00440655,0.,0.,-0.00301347,-0.00092066,0.,-0.00470332,0.012
 23019,0.,0.00606609,-0.01217311,0.,0.00286647,-0.01296999,0.,0.0254850
 8,0.15912977,0.,-0.13790123,0.00223652,0.,0.00086358,-0.14839630,0.,0.
 00348613,0.,0.,-0.01679253,0.,0.,-0.00140631,0.,0.,0.01471272,-0.00127
 968,0.,-0.01707683,-0.12272468,0.,0.05756074,0.01245179,0.,-0.00422924
 ,0.11155257,0.,-0.03625467,-0.00849728,-0.00000025,-0.00075990,-0.0008
 7956,-0.00000384,-0.07363811,0.01802560,0.00000040,0.01397566,-0.42744
 857,0.00000030,0.02378705,0.00000443,-0.00000079,0.06044259,-0.0003075
 7,0.00000333,0.08422408,-0.14090047,-0.00000558,-0.23295336,-0.0062682
 3,-0.00000018,-0.01926465,0.29552468,0.00000066,0.19798430,-0.27724453
 ,0.00000120,-0.01152360,-0.00000033,-0.00000119,-0.07807383,0.00000122
 ,-0.00000032,0.10219397,0.00221728,0.00000045,-0.00840002,0.19385134,0
 .00000049,0.10430423,-0.18581117,-0.00000091,-0.09305264,-0.00326012,0
 .00000003,0.00616855,0.11389829,-0.00000016,-0.05677626,-0.01201193,0.
 00000031,-0.01025744,-0.09862624,-0.00000124,-0.01150356,-0.00000027,0
 .00000158,-0.00615580,0.00000104,-0.00000015,-0.01259653,-0.00000003,-
 0.00000019,0.03025590,-0.00103015,0.00000006,-0.00218598,-0.06692654,0
 .00000066,0.04442505,0.00709153,0.00000002,-0.00285156,0.06086515,-0.0
 0000074,-0.03938751,-0.01299751,0.,-0.02593846,0.01124544,0.,0.0338981
 7,0.04119003,0.,0.03030618,-0.39826618,0.,0.02325336,0.,0.,-0.00709305
 ,-0.01375243,0.,-0.01721702,-0.27176213,0.,-0.10225819,-0.02937979,0.,
 -0.04678343,0.33854976,0.,0.27151972,-0.30062444,0.,0.00423949,0.,0.,-
 0.03149386,0.,0.,0.02678603,0.00003451,0.,-0.01745159,0.25674570,0.,0.
 10368449,-0.22568981,0.,-0.08281292,0.00118726,0.,0.00523181,0.0185264
 0,0.,0.01399485,-0.00854553,0.,-0.03109040,-0.01116813,0.,-0.00155441,
 0.,0.,0.01533354,0.,0.,0.00046834,0.,0.,-0.01424748,0.00247249,0.,0.00
 077042,-0.01528975,0.,0.01579072,0.00095351,0.,-0.00341997,0.01186374,
 0.,-0.01314116,-0.17968636,0.,-0.18516417,-0.01458762,0.,1.11714414,0.
 18126945,0.,0.01751836,-0.26459992,0.,0.18080939,0.,0.,-0.18071610,0.0
 1257340,0.,-1.09623690,-0.04438348,0.,1.06802879,-0.00088762,0.,-0.010
 28439,0.04141364,0.,0.04053159,-0.03008080,0.,0.00144095,0.,0.,-0.0008
 7282,0.,0.,-0.00212982,-0.00298722,0.,-0.01139836,0.04375952,0.,0.0285
 5964,-0.03381716,0.,-0.01933550,-0.00069547,0.,0.00735364,0.04191683,0
 .,-0.00872150,-0.01044522,0.,-0.00695514,-0.03077614,0.,0.00291383,0.,
 0.,0.00077953,0.,0.,0.00156170,0.,0.,-0.00525506,0.00500144,0.,-0.0095
 0888,-0.01689440,0.,-0.00035153,0.00356995,0.,0.00217423,0.00832300,0.
 ,0.00768619,-0.00580128,0.,-0.00262838,0.02878688,0.,0.03411041,0.0052
 7044,0.,-0.01597274,1.05806224,0.,0.00201183,0.,0.,-0.33575584,-0.0351
 2040,0.,-0.04056403,-0.83417207,0.,0.24761557,-0.00267401,0.,0.0038033
 6,-0.00379642,0.,0.01103035,0.00408483,0.,-0.00034820,0.,0.,-0.0042629
 3,0.,0.,-0.00030356,0.00269722,0.,0.00059149,-0.00118343,0.,0.00288424
 ,-0.00150545,0.,-0.00537976,0.00320486,0.,-0.01661750,-1.05953627,0.,0
 .85826211,0.00238559,0.,-0.00000834,1.05394581,0.,0.00096474,0.,0.,0.3
 3800695,0.,0.,0.00491468,0.,0.,-0.34388637,0.00363630,0.,0.00586211,0.
 85132823,0.,-0.20993578,-0.01332826,0.,0.00190403,-0.84163627,0.,0.202
 16964,0.00513434,0.,0.01158053,-0.01274530,0.,-0.03102060,-0.01073130,
 0.,-0.02628511,1.97499073,0.,-0.01659219,0.,0.,-0.61148767,0.02465193,
 0.,0.02494635,1.62408510,0.,0.40522692,0.00931559,0.,0.04141033,-1.957
 53126,0.,-1.64192204,1.94355249,0.,0.00571401,0.,0.,0.63009848,0.,0.,-
 0.64418000,-0.00906735,0.,0.00628737,-1.61766678,0.,-0.42773172,1.5973
 3083,0.,0.42355608,-0.00371866,0.,-0.00237991,-0.00672817,0.,-0.006814
 98,0.00466318,0.,0.02940330,0.00578365,0.,-0.00070237,0.,0.,-0.0020186
 2,0.,0.,0.00836751,0.,0.,-0.00564653,-0.00283928,0.,-0.00021313,0.0198
 6680,0.,-0.00244155,0.00318089,0.,-0.00211173,-0.02020841,0.,0.0047664
 0\\@


 MICHAEL FARADAY, ASKED BY A POLITICIAN WHAT GOOD
 HIS ELECTRICAL DISCOVERIES WERE, REPLIED 
 "AT PRESENT I DO NOT KNOW, BUT ONE DAY YOU WILL BE
 ABLE TO TAX THEM."
 Job cpu time:       0 days  3 hours 12 minutes 37.2 seconds.
 File lengths (MBytes):  RWF=    155 Int=      0 D2E=      0 Chk=     39 Scr=      1
 Normal termination of Gaussian 09 at Fri Oct  2 18:36:21 2020.
