Formaldahyde freq                                                       
Freq      RMP2-FC                                                     Aug-CC-pVDZ         
Number of atoms                            I                4
Info1-9                                    I   N=           9
          29          29        1002           0           0         100
           6           2           1
Full Title                                 C   N=           2
Formaldahyde freq       
Route                                      C   N=           7
#P #MP2/aug-cc-pvdz #Density=current #Opt=(Z-Matrix,VeryTigh
t) #Frequency=Anharmonic
Charge                                     I                0
Multiplicity                               I                1
Number of electrons                        I               16
Number of alpha electrons                  I                8
Number of beta electrons                   I                8
Number of basis functions                  I               64
Number of independent functions            I               64
Number of point charges in /Mol/           I                0
Number of translation vectors              I                0
Atomic numbers                             I   N=           4
           8           6           1           1
Nuclear charges                            R   N=           4
  8.00000000E+00  6.00000000E+00  1.00000000E+00  1.00000000E+00
Current cartesian coordinates              R   N=          12
  1.97215226E-31 -9.86076132E-32  1.29398384E+00 -9.86076132E-32  9.86076132E-32
 -1.01849656E+00 -4.93038066E-31  1.78816018E+00 -2.12044570E+00 -2.18986464E-16
 -1.78816018E+00 -2.12044570E+00
Number of symbols in /Mol/                 I                0
Force Field                                I                0
Atom Types                                 C   N=           4
                                                
Int Atom Types                             I   N=           4
           0           0           0           0
MM charges                                 R   N=           4
  0.00000000E+00  0.00000000E+00  0.00000000E+00  0.00000000E+00
Integer atomic weights                     I   N=           4
          16          12           1           2
Real atomic weights                        R   N=           4
  1.59949146E+01  1.20000000E+01  1.00782504E+00  2.01410179E+00
Atom fragment info                         I   N=           4
           0           0           0           0
Atom residue num                           I   N=           4
           0           0           0           0
Nuclear spins                              I   N=           4
           0           0           1           2
Nuclear ZEff                               R   N=           4
 -5.60000000E+00 -3.60000000E+00 -1.00000000E+00 -1.00000000E+00
Nuclear ZNuc                               R   N=           4
  8.00000000E+00  6.00000000E+00  1.00000000E+00  1.00000000E+00
Nuclear QMom                               R   N=           4
  0.00000000E+00  0.00000000E+00  0.00000000E+00  2.86000000E-01
Nuclear GFac                               R   N=           4
  0.00000000E+00  0.00000000E+00  2.79284600E+00  8.57438000E-01
MicOpt                                     I   N=           4
          -1          -1          -1          -1
Number of residues                         I                0
Number of secondary structures             I                0
SymInf integers                            I   N=          26
           2           4           1           1           1          -1
          -1           1          -1           1           1           1
          -1           1           0           0           0           0
           0           0           0           0           0           0
           0           0
RotTr to input orientation                 R   N=          12
 -5.31230680E-16  1.00000000E+00 -3.51164729E-16  1.00000000E+00  5.31230680E-16
  3.50230474E-16  3.50230474E-16 -3.51164729E-16 -1.00000000E+00  0.00000000E+00
 -1.36866540E-17  1.29398384E+00
Number of contracted shells                I               28
Number of primitive shells                 I               60
Pure/Cartesian d shells                    I                0
Pure/Cartesian f shells                    I                0
Highest angular momentum                   I                2
Largest degree of contraction              I                7
Shell types                                I   N=          28
           0           0           0           0           1           1
           1          -2          -2           0           0           0
           0           1           1           1          -2          -2
           0           0           0           1           1           0
           0           0           1           1
Number of primitives per shell             I   N=          28
           7           7           1           1           3           1
           1           1           1           7           7           1
           1           3           1           1           1           1
           3           1           1           1           1           3
           1           1           1           1
Shell to atom map                          I   N=          28
           1           1           1           1           1           1
           1           1           1           2           2           2
           2           2           2           2           2           2
           3           3           3           3           3           4
           4           4           4           4
Primitive exponents                        R   N=          60
  1.17200000E+04  1.75900000E+03  4.00800000E+02  1.13700000E+02  3.70300000E+01
  1.32700000E+01  5.02500000E+00  1.17200000E+04  4.00800000E+02  1.13700000E+02
  3.70300000E+01  1.32700000E+01  5.02500000E+00  1.01300000E+00  3.02300000E-01
  7.89600000E-02  1.77000000E+01  3.85400000E+00  1.04600000E+00  2.75300000E-01
  6.85600000E-02  1.18500000E+00  3.32000000E-01  6.66500000E+03  1.00000000E+03
  2.28000000E+02  6.47100000E+01  2.10600000E+01  7.49500000E+00  2.79700000E+00
  6.66500000E+03  2.28000000E+02  6.47100000E+01  2.10600000E+01  7.49500000E+00
  2.79700000E+00  5.21500000E-01  1.59600000E-01  4.69000000E-02  9.43900000E+00
  2.00200000E+00  5.45600000E-01  1.51700000E-01  4.04100000E-02  5.50000000E-01
  1.51000000E-01  1.30100000E+01  1.96200000E+00  4.44600000E-01  1.22000000E-01
  2.97400000E-02  7.27000000E-01  1.41000000E-01  1.30100000E+01  1.96200000E+00
  4.44600000E-01  1.22000000E-01  2.97400000E-02  7.27000000E-01  1.41000000E-01
Contraction coefficients                   R   N=          60
  7.11864434E-04  5.48520199E-03  2.79099296E-02  1.05133208E-01  2.84002490E-01
  4.51673946E-01  2.73208126E-01  7.69030046E-06  3.13484579E-04 -2.96614853E-03
 -1.08753543E-02 -1.20753817E-01 -1.06275264E-01  1.09597548E+00  1.00000000E+00
  1.00000000E+00  6.26791663E-02  3.33536566E-01  7.41239642E-01  1.00000000E+00
  1.00000000E+00  1.00000000E+00  1.00000000E+00  6.93516317E-04  5.34150243E-03
  2.71366714E-02  1.01992385E-01  2.75508636E-01  4.51086433E-01  2.87565745E-01
  7.73354740E-06  2.78072137E-04 -2.57875654E-03 -8.95087684E-03 -1.06058855E-01
 -1.31517686E-01  1.09948660E+00  1.00000000E+00  1.00000000E+00  5.69792516E-02
  3.13207212E-01  7.60376742E-01  1.00000000E+00  1.00000000E+00  1.00000000E+00
  1.00000000E+00  3.34987264E-02  2.34800801E-01  8.13682958E-01  1.00000000E+00
  1.00000000E+00  1.00000000E+00  1.00000000E+00  3.34987264E-02  2.34800801E-01
  8.13682958E-01  1.00000000E+00  1.00000000E+00  1.00000000E+00  1.00000000E+00
Coordinates of each shell                  R   N=          84
  7.97479114E-32 -6.37983292E-32  1.29398384E+00  7.97479114E-32 -6.37983292E-32
  1.29398384E+00  7.97479114E-32 -6.37983292E-32  1.29398384E+00  7.97479114E-32
 -6.37983292E-32  1.29398384E+00  7.97479114E-32 -6.37983292E-32  1.29398384E+00
  7.97479114E-32 -6.37983292E-32  1.29398384E+00  7.97479114E-32 -6.37983292E-32
  1.29398384E+00  7.97479114E-32 -6.37983292E-32  1.29398384E+00  7.97479114E-32
 -6.37983292E-32  1.29398384E+00 -6.27696967E-32  5.02157573E-32 -1.01849656E+00
 -6.27696967E-32  5.02157573E-32 -1.01849656E+00 -6.27696967E-32  5.02157573E-32
 -1.01849656E+00 -6.27696967E-32  5.02157573E-32 -1.01849656E+00 -6.27696967E-32
  5.02157573E-32 -1.01849656E+00 -6.27696967E-32  5.02157573E-32 -1.01849656E+00
 -6.27696967E-32  5.02157573E-32 -1.01849656E+00 -6.27696967E-32  5.02157573E-32
 -1.01849656E+00 -6.27696967E-32  5.02157573E-32 -1.01849656E+00 -3.33145274E-31
  1.78816018E+00 -2.12044570E+00 -3.33145274E-31  1.78816018E+00 -2.12044570E+00
 -3.33145274E-31  1.78816018E+00 -2.12044570E+00 -3.33145274E-31  1.78816018E+00
 -2.12044570E+00 -3.33145274E-31  1.78816018E+00 -2.12044570E+00 -2.18986464E-16
 -1.78816018E+00 -2.12044570E+00 -2.18986464E-16 -1.78816018E+00 -2.12044570E+00
 -2.18986464E-16 -1.78816018E+00 -2.12044570E+00 -2.18986464E-16 -1.78816018E+00
 -2.12044570E+00 -2.18986464E-16 -1.78816018E+00 -2.12044570E+00
Num ILSW                                   I              100
ILSW                                       I   N=         100
           0           0           0           1           2           0
           0           0           0           0           0          -1
           5           0           0           0           2           0
           0           0           0           0           1           0
           1           0           0           0           0           0
           0           0      100000           0          -1           0
           0           0           0           0           0           0
           0           0           0           1           1           0
           0 -2000000000           1           0           0           0
           0           0           4          52           0           0
           0           0           0           0           0           0
           0           0           0           4           4           1
           0           0           0           0           0           0
           0           0           0           0           0           0
           0           0           0           0           0           0
           0           0           0           0           0           0
           0           0           0           0
Num RLSW                                   I               52
RLSW                                       R   N=          52
  1.00000000E+00  1.00000000E+00  1.00000000E+00  1.00000000E+00  1.00000000E+00
  0.00000000E+00  0.00000000E+00  1.00000000E+00  0.00000000E+00  0.00000000E+00
  0.00000000E+00  0.00000000E+00  1.00000000E+00  0.00000000E+00  0.00000000E+00
  0.00000000E+00  0.00000000E+00  1.00000000E+00  0.00000000E+00  0.00000000E+00
  0.00000000E+00  0.00000000E+00  1.00000000E+00  0.00000000E+00  0.00000000E+00
  0.00000000E+00  0.00000000E+00  1.00000000E+00  0.00000000E+00  0.00000000E+00
  0.00000000E+00  0.00000000E+00  1.00000000E+00  0.00000000E+00  0.00000000E+00
  0.00000000E+00  0.00000000E+00  0.00000000E+00  1.00000000E+00  1.00000000E+00
  0.00000000E+00  1.00000000E+00  0.00000000E+00  0.00000000E+00  0.00000000E+00
  0.00000000E+00  0.00000000E+00  0.00000000E+00  0.00000000E+00  0.00000000E+00
  0.00000000E+00  0.00000000E+00
MxBond                                     I                3
NBond                                      I   N=           4
           1           3           1           1
IBond                                      I   N=          12
           2           0           0           1           3           4
           2           0           0           2           0           0
RBond                                      R   N=          12
  2.00000000E+00  0.00000000E+00  0.00000000E+00  2.00000000E+00  1.00000000E+00
  1.00000000E+00  1.00000000E+00  0.00000000E+00  0.00000000E+00  1.00000000E+00
  0.00000000E+00  0.00000000E+00
Virial Ratio                               R      2.002727038928510E+00
SCF Energy                                 R     -1.138831487313047E+02
MP2 Energy                                 R     -1.142188773521980E+02
Total Energy                               R     -1.142188773521980E+02
Post-SCF wavefunction norm                 R      1.488320298631278E+00
RMS Force                                  R      1.711689178567716E-08
RMS Density                                R      6.942798177112484E-10
NImag                                      I                0
Job Status                                 I                1
Nuclear derivative order                   I                3
External E-field                           R   N=          35
  0.00000000E+00  0.00000000E+00  0.00000000E+00  0.00000000E+00  0.00000000E+00
  0.00000000E+00  0.00000000E+00  0.00000000E+00  0.00000000E+00  0.00000000E+00
  0.00000000E+00  0.00000000E+00  0.00000000E+00  0.00000000E+00  0.00000000E+00
  0.00000000E+00  0.00000000E+00  0.00000000E+00  0.00000000E+00  0.00000000E+00
  0.00000000E+00  0.00000000E+00  0.00000000E+00  0.00000000E+00  0.00000000E+00
  0.00000000E+00  0.00000000E+00  0.00000000E+00  0.00000000E+00  0.00000000E+00
  0.00000000E+00  0.00000000E+00  0.00000000E+00  0.00000000E+00  0.00000000E+00
IOpCl                                      I                0
IROHF                                      I                0
Alpha Orbital Energies                     R   N=          64
 -2.05902862E+01 -1.13567086E+01 -1.40037055E+00 -8.73614623E-01 -6.90819705E-01
 -6.48798992E-01 -5.30353048E-01 -4.44662114E-01  3.25671970E-02  5.04352914E-02
  6.74216533E-02  8.95965071E-02  1.45150991E-01  1.55569593E-01  1.59757556E-01
  2.19713830E-01  2.56254571E-01  2.65602009E-01  2.67367575E-01  3.22338010E-01
  3.41141187E-01  3.53976489E-01  4.45504839E-01  4.50498859E-01  4.67302550E-01
  5.11433659E-01  5.50676827E-01  5.54229596E-01  5.95017905E-01  6.15962054E-01
  6.40135628E-01  6.80472421E-01  7.48127242E-01  8.43258721E-01  8.88979026E-01
  9.94556391E-01  1.05335983E+00  1.20858489E+00  1.21387016E+00  1.22636029E+00
  1.27361805E+00  1.41884719E+00  1.49234831E+00  1.49271410E+00  1.62343863E+00
  1.62476053E+00  1.81100623E+00  1.81679421E+00  1.93875950E+00  1.95152154E+00
  2.06981152E+00  2.13637578E+00  2.16838477E+00  2.21683338E+00  2.37555303E+00
  2.53464115E+00  2.65317611E+00  2.92406135E+00  3.28305030E+00  3.68744501E+00
  3.69735134E+00  3.73756085E+00  3.87640287E+00  4.02579122E+00
Alpha MO coefficients                      R   N=        4096
  9.97299384E-01  1.68039101E-02 -1.09910017E-02 -5.18516364E-03  0.00000000E+00
  0.00000000E+00 -1.81353407E-03  0.00000000E+00  0.00000000E+00  3.83958152E-03
  0.00000000E+00  0.00000000E+00  1.23331275E-03  2.38789220E-04  0.00000000E+00
  0.00000000E+00 -1.91408037E-04  0.00000000E+00 -7.44449402E-04  0.00000000E+00
  0.00000000E+00 -3.66780637E-05  0.00000000E+00  1.23976043E-04  6.51519615E-04
  6.55500738E-03  2.87719880E-03  0.00000000E+00  0.00000000E+00  4.31670716E-04
  0.00000000E+00  0.00000000E+00  5.52074933E-03  0.00000000E+00  0.00000000E+00
  2.15706743E-04 -4.76721373E-04  0.00000000E+00  0.00000000E+00 -3.35471459E-04
  0.00000000E+00  2.64137274E-03  0.00000000E+00  0.00000000E+00  6.81302173E-04
  0.00000000E+00 -2.73162157E-04  1.17272275E-03 -3.93719034E-04  0.00000000E+00
  1.71901345E-04 -3.09742512E-04  0.00000000E+00  2.41408583E-04  6.69346542E-04
 -2.73162157E-04  1.17272275E-03 -3.93719034E-04  0.00000000E+00 -1.71901345E-04
 -3.09742512E-04  0.00000000E+00 -2.41408583E-04  6.69346542E-04 -3.29460134E-04
  6.38302224E-04 -1.00206433E-03  1.95305410E-06  0.00000000E+00  0.00000000E+00
 -5.07910625E-04  0.00000000E+00  0.00000000E+00  1.93105529E-03  0.00000000E+00
  0.00000000E+00  1.08131194E-04  3.23150225E-04  0.00000000E+00  0.00000000E+00
  4.54191560E-05  0.00000000E+00 -1.26825359E-03  0.00000000E+00  0.00000000E+00
  8.83881539E-05  0.00000000E+00  9.97715408E-01  2.02563127E-02 -2.00552393E-02
 -5.80828988E-03  0.00000000E+00  0.00000000E+00  8.85264024E-04  0.00000000E+00
  0.00000000E+00  4.86063770E-03  0.00000000E+00  0.00000000E+00  8.74464260E-04
  7.83385910E-04  0.00000000E+00  0.00000000E+00 -6.21117061E-04  0.00000000E+00
 -8.99188740E-04  0.00000000E+00  0.00000000E+00  1.08270032E-03  0.00000000E+00
  2.75490631E-04  9.76588910E-03  1.07272945E-03  0.00000000E+00  3.12723850E-04
 -1.99835736E-04  0.00000000E+00 -2.90047812E-03  1.26079794E-03  2.75490631E-04
  9.76588910E-03  1.07272945E-03  0.00000000E+00 -3.12723850E-04 -1.99835736E-04
  0.00000000E+00  2.90047812E-03  1.26079794E-03 -1.96709799E-01  4.08082258E-01
  4.25699507E-01  3.18086184E-02  0.00000000E+00  0.00000000E+00 -1.31403309E-01
  0.00000000E+00  0.00000000E+00 -4.33587726E-02  0.00000000E+00  0.00000000E+00
  9.45936169E-04  1.72761516E-02  0.00000000E+00  0.00000000E+00 -1.85309885E-05
  0.00000000E+00 -5.84812275E-03  0.00000000E+00  0.00000000E+00 -6.72249458E-04
  0.00000000E+00 -1.04121913E-01  2.13023182E-01  7.61690755E-02 -7.45744229E-03
  0.00000000E+00  0.00000000E+00  1.82068190E-01  0.00000000E+00  0.00000000E+00
 -1.67273754E-02  0.00000000E+00  0.00000000E+00 -2.99322262E-03  3.99010197E-02
  0.00000000E+00  0.00000000E+00  8.44538399E-03  0.00000000E+00 -2.93438435E-02
  0.00000000E+00  0.00000000E+00 -5.24323762E-03  0.00000000E+00  3.93683113E-02
 -2.19695616E-02  1.24165368E-03  0.00000000E+00 -7.66782816E-03  9.35600069E-03
  0.00000000E+00 -6.63144716E-04 -1.21113743E-02  3.93683113E-02 -2.19695616E-02
  1.24165368E-03  0.00000000E+00  7.66782816E-03  9.35600069E-03  0.00000000E+00
  6.63144716E-04 -1.21113743E-02  8.59600928E-02 -1.92354683E-01 -2.67248287E-01
 -4.92208913E-02  0.00000000E+00  0.00000000E+00 -1.51300624E-01  0.00000000E+00
  0.00000000E+00 -9.43392918E-02  0.00000000E+00  0.00000000E+00  8.21611453E-03
  6.35516677E-03  0.00000000E+00  0.00000000E+00  1.29590045E-03  0.00000000E+00
  1.46748512E-02  0.00000000E+00  0.00000000E+00 -1.99390018E-03  0.00000000E+00
 -1.58182581E-01  3.40330716E-01  1.98663273E-01 -7.90892017E-03  0.00000000E+00
  0.00000000E+00 -1.69173106E-01  0.00000000E+00  0.00000000E+00 -4.32185857E-02
  0.00000000E+00  0.00000000E+00 -6.58970486E-04 -6.57974392E-03  0.00000000E+00
  0.00000000E+00 -9.11168534E-03  0.00000000E+00  3.89811991E-02  0.00000000E+00
  0.00000000E+00  3.02959258E-02  0.00000000E+00  2.39138812E-01  8.36477369E-02
  3.34677055E-03  0.00000000E+00 -2.46126055E-02  1.14070602E-02  0.00000000E+00
  3.38058243E-03  2.83987436E-02  2.39138812E-01  8.36477369E-02  3.34677055E-03
  0.00000000E+00  2.46126055E-02  1.14070602E-02  0.00000000E+00 -3.38058243E-03
  2.83987436E-02  0.00000000E+00  0.00000000E+00  0.00000000E+00  0.00000000E+00
  0.00000000E+00  3.32130185E-01  0.00000000E+00  0.00000000E+00  2.19845838E-01
  0.00000000E+00  0.00000000E+00  1.23422605E-02  0.00000000E+00  0.00000000E+00
  0.00000000E+00 -1.70074364E-02  0.00000000E+00  0.00000000E+00  0.00000000E+00
  0.00000000E+00 -1.94124802E-02  0.00000000E+00  0.00000000E+00  0.00000000E+00
  0.00000000E+00  0.00000000E+00  0.00000000E+00  0.00000000E+00  4.02226051E-01
  0.00000000E+00  0.00000000E+00  7.66638812E-03  0.00000000E+00  0.00000000E+00
 -1.39955209E-02  0.00000000E+00  0.00000000E+00  0.00000000E+00  1.79157374E-03
  0.00000000E+00  0.00000000E+00  0.00000000E+00  0.00000000E+00 -4.47181911E-03
  0.00000000E+00  0.00000000E+00  2.51736752E-01  2.05933990E-01  1.46381525E-02
  0.00000000E+00 -1.40796133E-02  1.16992289E-02  0.00000000E+00 -4.41098198E-02
  3.45654511E-02 -2.51736752E-01 -2.05933990E-01 -1.46381525E-02  0.00000000E+00
 -1.40796133E-02 -1.16992289E-02  0.00000000E+00 -4.41098198E-02 -3.45654511E-02
 -6.47805198E-02  1.46238667E-01  2.74736009E-01  1.16527587E-01  0.00000000E+00
  0.00000000E+00  4.98927085E-01  0.00000000E+00  0.00000000E+00  2.44866723E-01
  0.00000000E+00  0.00000000E+00  3.88263956E-03 -2.37974505E-02  0.00000000E+00
  0.00000000E+00 -7.18507357E-04  0.00000000E+00  5.54992701E-03  0.00000000E+00
  0.00000000E+00 -2.47442873E-03  0.00000000E+00  1.53119093E-02 -5.77139174E-02
 -7.55375006E-02 -5.41927855E-02  0.00000000E+00  0.00000000E+00 -3.90896532E-01
  0.00000000E+00  0.00000000E+00 -9.49539660E-02  0.00000000E+00  0.00000000E+00
 -6.26998747E-03 -3.74174547E-02  0.00000000E+00  0.00000000E+00 -9.96162882E-03
  0.00000000E+00  3.32875229E-02  0.00000000E+00  0.00000000E+00  1.64934184E-02
  0.00000000E+00  1.30621697E-01  8.50081794E-02  7.99823960E-03  0.00000000E+00
 -1.11224299E-02 -1.47456029E-03  0.00000000E+00 -4.47845527E-03  2.12413702E-02
  1.30621697E-01  8.50081794E-02  7.99823960E-03  0.00000000E+00  1.11224299E-02
 -1.47456029E-03  0.00000000E+00  4.47845527E-03  2.12413702E-02  0.00000000E+00
  0.00000000E+00  0.00000000E+00  0.00000000E+00  4.89444926E-01  0.00000000E+00
  0.00000000E+00  3.53818320E-01  0.00000000E+00  0.00000000E+00  4.87517011E-02
  0.00000000E+00  0.00000000E+00  0.00000000E+00 -2.46723110E-02  0.00000000E+00
  0.00000000E+00  0.00000000E+00  0.00000000E+00 -3.16628219E-02  0.00000000E+00
  0.00000000E+00  0.00000000E+00  0.00000000E+00  0.00000000E+00  0.00000000E+00
  0.00000000E+00  3.26501684E-01  0.00000000E+00  0.00000000E+00  1.74113813E-01
  0.00000000E+00  0.00000000E+00  3.59158883E-03  0.00000000E+00  0.00000000E+00
  0.00000000E+00  4.46065972E-02  0.00000000E+00  0.00000000E+00  0.00000000E+00
  0.00000000E+00 -9.78362738E-03  0.00000000E+00  0.00000000E+00  0.00000000E+00
  0.00000000E+00  0.00000000E+00  0.00000000E+00  1.01295340E-02  0.00000000E+00
  0.00000000E+00 -6.42186224E-03  0.00000000E+00  0.00000000E+00  0.00000000E+00
  0.00000000E+00  0.00000000E+00  1.01295340E-02  0.00000000E+00  0.00000000E+00
 -6.42186224E-03  0.00000000E+00  0.00000000E+00  0.00000000E+00  0.00000000E+00
  0.00000000E+00  0.00000000E+00  0.00000000E+00  5.45754267E-01  0.00000000E+00
  0.00000000E+00  4.05293382E-01  0.00000000E+00  0.00000000E+00  1.02115153E-01
  0.00000000E+00  0.00000000E+00  0.00000000E+00 -8.12016353E-03  0.00000000E+00
  0.00000000E+00  0.00000000E+00  0.00000000E+00 -8.87853061E-03  0.00000000E+00
  0.00000000E+00  0.00000000E+00  0.00000000E+00  0.00000000E+00  0.00000000E+00
  0.00000000E+00 -1.91565112E-01  0.00000000E+00  0.00000000E+00 -1.54491574E-01
  0.00000000E+00  0.00000000E+00 -6.15121256E-02  0.00000000E+00  0.00000000E+00
  0.00000000E+00  7.35097206E-02  0.00000000E+00  0.00000000E+00  0.00000000E+00
  0.00000000E+00  8.87974676E-03  0.00000000E+00  0.00000000E+00 -2.32768662E-01
 -9.04465769E-02  3.07015090E-02  0.00000000E+00  3.13735392E-03 -8.00115203E-03
  0.00000000E+00 -3.92510549E-03  2.41283398E-02  2.32768662E-01  9.04465769E-02
 -3.07015090E-02  0.00000000E+00  3.13735392E-03  8.00115203E-03  0.00000000E+00
 -3.92510549E-03 -2.41283398E-02 -1.87365151E-03  1.35562020E-02 -5.66732060E-02
 -8.49445320E-01  0.00000000E+00  0.00000000E+00  2.57591236E-02  0.00000000E+00
  0.00000000E+00  7.25291714E-02  0.00000000E+00  0.00000000E+00  2.92888517E-01
  6.23917668E-04  0.00000000E+00  0.00000000E+00 -2.14360565E-05  0.00000000E+00
 -8.77606463E-03  0.00000000E+00  0.00000000E+00  2.01972921E-03  0.00000000E+00
 -3.06937010E-02  3.59557363E-02  7.74066623E-01  3.52020300E+00  0.00000000E+00
  0.00000000E+00 -5.62609422E-02  0.00000000E+00  0.00000000E+00 -8.59831517E-02
  0.00000000E+00  0.00000000E+00 -1.49546916E-01  7.94874011E-04  0.00000000E+00
  0.00000000E+00  4.62800473E-04  0.00000000E+00  8.61235688E-02  0.00000000E+00
  0.00000000E+00 -5.18168923E-02  0.00000000E+00  6.34570770E-03 -5.13951271E-01
 -1.64806561E+00  0.00000000E+00 -4.36211454E-03  8.84285634E-04  0.00000000E+00
  1.32474655E-01 -2.32306815E-02  6.34570770E-03 -5.13951271E-01 -1.64806561E+00
  0.00000000E+00  4.36211454E-03  8.84285634E-04  0.00000000E+00 -1.32474655E-01
 -2.32306815E-02  0.00000000E+00  0.00000000E+00  0.00000000E+00  0.00000000E+00
  0.00000000E+00  8.95083633E-03  0.00000000E+00  0.00000000E+00  2.82343623E-02
  0.00000000E+00  0.00000000E+00  4.11810930E-01  0.00000000E+00  0.00000000E+00
  0.00000000E+00  4.72764023E-03  0.00000000E+00  0.00000000E+00  0.00000000E+00
  0.00000000E+00 -1.81501452E-02  0.00000000E+00  0.00000000E+00  0.00000000E+00
  0.00000000E+00  0.00000000E+00  0.00000000E+00  0.00000000E+00 -7.15178668E-02
  0.00000000E+00  0.00000000E+00 -4.77332674E-01  0.00000000E+00  0.00000000E+00
 -2.40908736E+00  0.00000000E+00  0.00000000E+00  0.00000000E+00  2.57523581E-03
  0.00000000E+00  0.00000000E+00  0.00000000E+00  0.00000000E+00  7.50277443E-04
  0.00000000E+00  0.00000000E+00 -2.08368681E-02  6.28340876E-01  4.72587643E+00
  0.00000000E+00  1.71289703E-03 -2.09540908E-03  0.00000000E+00 -1.18173658E-01
  1.44957031E-01  2.08368681E-02 -6.28340876E-01 -4.72587643E+00  0.00000000E+00
  1.71289703E-03  2.09540908E-03  0.00000000E+00 -1.18173658E-01 -1.44957031E-01
  0.00000000E+00  0.00000000E+00  0.00000000E+00  0.00000000E+00 -2.39688190E-01
  0.00000000E+00  0.00000000E+00 -1.91930087E-01  0.00000000E+00  0.00000000E+00
 -6.02817327E-01  0.00000000E+00  0.00000000E+00  0.00000000E+00 -3.00175454E-03
  0.00000000E+00  0.00000000E+00  0.00000000E+00  0.00000000E+00  9.56656094E-03
  0.00000000E+00  0.00000000E+00  0.00000000E+00  0.00000000E+00  0.00000000E+00
  0.00000000E+00  0.00000000E+00  1.89007442E-01  0.00000000E+00  0.00000000E+00
  2.31153921E-01  0.00000000E+00  0.00000000E+00  1.20117547E+00  0.00000000E+00
  0.00000000E+00  0.00000000E+00 -2.99487468E-02  0.00000000E+00  0.00000000E+00
  0.00000000E+00  0.00000000E+00 -2.38745646E-02  0.00000000E+00  0.00000000E+00
  0.00000000E+00  0.00000000E+00  0.00000000E+00  0.00000000E+00  1.69510375E-02
  0.00000000E+00  0.00000000E+00 -2.13035320E-02  0.00000000E+00  0.00000000E+00
  0.00000000E+00  0.00000000E+00  0.00000000E+00  1.69510375E-02  0.00000000E+00
  0.00000000E+00 -2.13035320E-02  0.00000000E+00  0.00000000E+00 -2.75666964E-02
  4.72462612E-02  3.28824737E-01  2.67002454E+00  0.00000000E+00  0.00000000E+00
  9.86390594E-03  0.00000000E+00  0.00000000E+00 -2.14279396E-01  0.00000000E+00
  0.00000000E+00 -3.11673182E-01  4.12186212E-03  0.00000000E+00  0.00000000E+00
 -8.58103519E-04  0.00000000E+00  1.82755409E-02  0.00000000E+00  0.00000000E+00
  6.45965870E-03  0.00000000E+00  8.56016241E-03 -3.50274029E-02 -2.54733680E-02
 -9.68288936E-01  0.00000000E+00  0.00000000E+00 -1.07971680E-02  0.00000000E+00
  0.00000000E+00 -7.95785841E-01  0.00000000E+00  0.00000000E+00 -1.91682903E+00
 -6.58703900E-03  0.00000000E+00  0.00000000E+00  3.12333121E-03  0.00000000E+00
 -1.44686232E-01  0.00000000E+00  0.00000000E+00 -9.22760784E-02  0.00000000E+00
 -6.28970426E-03 -6.90348242E-01 -3.38146427E-01  0.00000000E+00 -3.55578954E-03
 -7.44353872E-03  0.00000000E+00  1.50878947E-01 -5.73024252E-02 -6.28970426E-03
 -6.90348242E-01 -3.38146427E-01  0.00000000E+00  3.55578954E-03 -7.44353872E-03
  0.00000000E+00 -1.50878947E-01 -5.73024252E-02  0.00000000E+00  0.00000000E+00
  0.00000000E+00  0.00000000E+00  2.26166329E-01  0.00000000E+00  0.00000000E+00
  2.62128726E-01  0.00000000E+00  0.00000000E+00  5.74052815E-02  0.00000000E+00
  0.00000000E+00  0.00000000E+00  1.16909357E-02  0.00000000E+00  0.00000000E+00
  0.00000000E+00  0.00000000E+00 -4.81872218E-03  0.00000000E+00  0.00000000E+00
  0.00000000E+00  0.00000000E+00  0.00000000E+00  0.00000000E+00  0.00000000E+00
 -3.99375615E-01  0.00000000E+00  0.00000000E+00 -4.86706551E-01  0.00000000E+00
  0.00000000E+00  9.00986244E-01  0.00000000E+00  0.00000000E+00  0.00000000E+00
  1.95500659E-02  0.00000000E+00  0.00000000E+00  0.00000000E+00  0.00000000E+00
  2.60463931E-04  0.00000000E+00  0.00000000E+00  0.00000000E+00  0.00000000E+00
  0.00000000E+00  0.00000000E+00 -3.81040262E-03  0.00000000E+00  0.00000000E+00
 -2.29270537E-01  0.00000000E+00  0.00000000E+00  0.00000000E+00  0.00000000E+00
  0.00000000E+00 -3.81040262E-03  0.00000000E+00  0.00000000E+00 -2.29270537E-01
  0.00000000E+00  0.00000000E+00  0.00000000E+00  0.00000000E+00  0.00000000E+00
  0.00000000E+00  0.00000000E+00  4.80791677E-02  0.00000000E+00  0.00000000E+00
  1.87865643E-02  0.00000000E+00  0.00000000E+00  7.95423732E-01  0.00000000E+00
  0.00000000E+00  0.00000000E+00 -3.55963350E-03  0.00000000E+00  0.00000000E+00
  0.00000000E+00  0.00000000E+00 -2.43201018E-02  0.00000000E+00  0.00000000E+00
  0.00000000E+00  0.00000000E+00  0.00000000E+00  0.00000000E+00  0.00000000E+00
  1.48559175E-01  0.00000000E+00  0.00000000E+00 -1.46710428E+00  0.00000000E+00
  0.00000000E+00 -5.42899923E+00  0.00000000E+00  0.00000000E+00  0.00000000E+00
  5.31699083E-03  0.00000000E+00  0.00000000E+00  0.00000000E+00  0.00000000E+00
  3.47239829E-01  0.00000000E+00  0.00000000E+00  5.52595708E-02  2.78802622E+00
  5.93010887E+00  0.00000000E+00 -2.15693101E-02  8.69541160E-03  0.00000000E+00
 -5.34004017E-01  3.91357011E-01 -5.52595708E-02 -2.78802622E+00 -5.93010887E+00
  0.00000000E+00 -2.15693101E-02 -8.69541160E-03  0.00000000E+00 -5.34004017E-01
 -3.91357011E-01  1.06034421E-02 -1.33185215E-02 -1.36256773E-01 -2.91516334E+00
  0.00000000E+00  0.00000000E+00 -4.48474546E-02  0.00000000E+00  0.00000000E+00
  1.37209742E-01  0.00000000E+00  0.00000000E+00  9.55634195E-01  2.37679549E-03
  0.00000000E+00  0.00000000E+00 -1.54408712E-03  0.00000000E+00 -5.95048376E-02
  0.00000000E+00  0.00000000E+00  2.20201635E-02  0.00000000E+00  2.92534317E-02
 -2.08190993E-01  2.02549400E+00  9.39981744E+00  0.00000000E+00  0.00000000E+00
  1.30025092E-01  0.00000000E+00  0.00000000E+00 -1.26931820E-01  0.00000000E+00
  0.00000000E+00 -8.14296139E-01  8.67986316E-03  0.00000000E+00  0.00000000E+00
  3.32638874E-03  0.00000000E+00  6.78282353E-02  0.00000000E+00  0.00000000E+00