Formaldahyde freq                                                       
Freq      RMP2-FC                                                     Aug-CC-pVDZ         
Number of atoms                            I                4
Info1-9                                    I   N=           9
          28          28        1002           0           0         100
           6           2           1
Charge                                     I                0
Multiplicity                               I                1
Number of electrons                        I               16
Number of alpha electrons                  I                8
Number of beta electrons                   I                8
Number of basis functions                  I               64
Number of independent functions            I               64
Number of point charges in /Mol/           I                0
Number of translation vectors              I                0
Atomic numbers                             I   N=           4
           8           6           1           1
Nuclear charges                            R   N=           4
  8.00000000E+00  6.00000000E+00  1.00000000E+00  1.00000000E+00
Current cartesian coordinates              R   N=          12
 -9.86076132E-31  2.46519033E-31  1.29398370E+00  5.91645679E-31 -2.09541178E-31
 -1.01849646E+00  1.57772181E-30  1.78816067E+00 -2.12044542E+00 -2.18986524E-16
 -1.78816067E+00 -2.12044542E+00
Force Field                                I                0
Int Atom Types                             I   N=           4
           0           0           0           0
MM charges                                 R   N=           4
  0.00000000E+00  0.00000000E+00  0.00000000E+00  0.00000000E+00
Integer atomic weights                     I   N=           4
          16          12           1           2
Real atomic weights                        R   N=           4
  1.59949146E+01  1.20000000E+01  1.00782504E+00  2.01410179E+00
Atom fragment info                         I   N=           4
           0           0           0           0
Atom residue num                           I   N=           4
           0           0           0           0
Nuclear spins                              I   N=           4
           0           0           1           2
Nuclear ZEff                               R   N=           4
 -5.60000000E+00 -3.60000000E+00 -1.00000000E+00 -1.00000000E+00
Nuclear ZNuc                               R   N=           4
  8.00000000E+00  6.00000000E+00  1.00000000E+00  1.00000000E+00
Nuclear QMom                               R   N=           4
  0.00000000E+00  0.00000000E+00  0.00000000E+00  2.86000000E-01
Nuclear GFac                               R   N=           4
  0.00000000E+00  0.00000000E+00  2.79284600E+00  8.57438000E-01
MicOpt                                     I   N=           4
          -1          -1          -1          -1
SymInf integers                            I   N=          26
           2           4           1           1           1          -1
          -1           1          -1           1           1           1
          -1           1           0           0           0           0
           0           0           0           0           0           0
           0           0
RotTr to input orientation                 R   N=          12
 -2.40498627E-15  1.00000000E+00 -1.35600642E-15  1.00000000E+00  2.40498627E-15
 -3.83475851E-17 -3.83475851E-17 -1.35600642E-15 -1.00000000E+00  5.55111512E-17
 -1.03506211E-16  1.24325025E+00
Number of contracted shells                I               28
Number of primitive shells                 I               60
Pure/Cartesian d shells                    I                0
Pure/Cartesian f shells                    I                0
Highest angular momentum                   I                2
Largest degree of contraction              I                7
Shell types                                I   N=          28
           0           0           0           0           1           1
           1          -2          -2           0           0           0
           0           1           1           1          -2          -2
           0           0           0           1           1           0
           0           0           1           1
Number of primitives per shell             I   N=          28
           7           7           1           1           3           1
           1           1           1           7           7           1
           1           3           1           1           1           1
           3           1           1           1           1           3
           1           1           1           1
Shell to atom map                          I   N=          28
           1           1           1           1           1           1
           1           1           1           2           2           2
           2           2           2           2           2           2
           3           3           3           3           3           4
           4           4           4           4
Primitive exponents                        R   N=          60
  1.17200000E+04  1.75900000E+03  4.00800000E+02  1.13700000E+02  3.70300000E+01
  1.32700000E+01  5.02500000E+00  1.17200000E+04  4.00800000E+02  1.13700000E+02
  3.70300000E+01  1.32700000E+01  5.02500000E+00  1.01300000E+00  3.02300000E-01
  7.89600000E-02  1.77000000E+01  3.85400000E+00  1.04600000E+00  2.75300000E-01
  6.85600000E-02  1.18500000E+00  3.32000000E-01  6.66500000E+03  1.00000000E+03
  2.28000000E+02  6.47100000E+01  2.10600000E+01  7.49500000E+00  2.79700000E+00
  6.66500000E+03  2.28000000E+02  6.47100000E+01  2.10600000E+01  7.49500000E+00
  2.79700000E+00  5.21500000E-01  1.59600000E-01  4.69000000E-02  9.43900000E+00
  2.00200000E+00  5.45600000E-01  1.51700000E-01  4.04100000E-02  5.50000000E-01
  1.51000000E-01  1.30100000E+01  1.96200000E+00  4.44600000E-01  1.22000000E-01
  2.97400000E-02  7.27000000E-01  1.41000000E-01  1.30100000E+01  1.96200000E+00
  4.44600000E-01  1.22000000E-01  2.97400000E-02  7.27000000E-01  1.41000000E-01
Contraction coefficients                   R   N=          60
  7.11864434E-04  5.48520199E-03  2.79099296E-02  1.05133208E-01  2.84002490E-01
  4.51673946E-01  2.73208126E-01  7.69030046E-06  3.13484579E-04 -2.96614853E-03
 -1.08753543E-02 -1.20753817E-01 -1.06275264E-01  1.09597548E+00  1.00000000E+00
  1.00000000E+00  6.26791663E-02  3.33536566E-01  7.41239642E-01  1.00000000E+00
  1.00000000E+00  1.00000000E+00  1.00000000E+00  6.93516317E-04  5.34150243E-03
  2.71366714E-02  1.01992385E-01  2.75508636E-01  4.51086433E-01  2.87565745E-01
  7.73354740E-06  2.78072137E-04 -2.57875654E-03 -8.95087684E-03 -1.06058855E-01
 -1.31517686E-01  1.09948660E+00  1.00000000E+00  1.00000000E+00  5.69792516E-02
  3.13207212E-01  7.60376742E-01  1.00000000E+00  1.00000000E+00  1.00000000E+00
  1.00000000E+00  3.34987264E-02  2.34800801E-01  8.13682958E-01  1.00000000E+00
  1.00000000E+00  1.00000000E+00  1.00000000E+00  3.34987264E-02  2.34800801E-01
  8.13682958E-01  1.00000000E+00  1.00000000E+00  1.00000000E+00  1.00000000E+00
Coordinates of each shell                  R   N=          84
 -5.91645679E-31  1.66400347E-31  1.29398370E+00 -5.91645679E-31  1.66400347E-31
  1.29398370E+00 -5.91645679E-31  1.66400347E-31  1.29398370E+00 -5.91645679E-31
  1.66400347E-31  1.29398370E+00 -5.91645679E-31  1.66400347E-31  1.29398370E+00
 -5.91645679E-31  1.66400347E-31  1.29398370E+00 -5.91645679E-31  1.66400347E-31
  1.29398370E+00 -5.91645679E-31  1.66400347E-31  1.29398370E+00 -5.91645679E-31
  1.66400347E-31  1.29398370E+00  3.94430453E-31 -1.35585468E-31 -1.01849646E+00
  3.94430453E-31 -1.35585468E-31 -1.01849646E+00  3.94430453E-31 -1.35585468E-31
 -1.01849646E+00  3.94430453E-31 -1.35585468E-31 -1.01849646E+00  3.94430453E-31
 -1.35585468E-31 -1.01849646E+00  3.94430453E-31 -1.35585468E-31 -1.01849646E+00
  3.94430453E-31 -1.35585468E-31 -1.01849646E+00  3.94430453E-31 -1.35585468E-31
 -1.01849646E+00  3.94430453E-31 -1.35585468E-31 -1.01849646E+00  1.57772181E-30
  1.78816067E+00 -2.12044542E+00  1.57772181E-30  1.78816067E+00 -2.12044542E+00
  1.57772181E-30  1.78816067E+00 -2.12044542E+00  1.57772181E-30  1.78816067E+00
 -2.12044542E+00  1.57772181E-30  1.78816067E+00 -2.12044542E+00 -2.18986524E-16
 -1.78816067E+00 -2.12044542E+00 -2.18986524E-16 -1.78816067E+00 -2.12044542E+00
 -2.18986524E-16 -1.78816067E+00 -2.12044542E+00 -2.18986524E-16 -1.78816067E+00
 -2.12044542E+00 -2.18986524E-16 -1.78816067E+00 -2.12044542E+00
Constraint Structure                       R   N=          12
 -5.91645679E-31  1.66400347E-31  1.29398370E+00  3.94430453E-31 -1.35585468E-31
 -1.01849646E+00  1.57772181E-30  1.78816067E+00 -2.12044542E+00 -2.18986524E-16
 -1.78816067E+00 -2.12044542E+00
Num ILSW                                   I              100
ILSW                                       I   N=         100
           0           0           0           0           2           0
           0           0           0           0           0          -1
           0           0           0           0           2           0
           0           0           1           0           1           0
           1           0           0           0           0           0
           0           0      100000           0          -1           0
           0           0           0           0           0           0
           0           0           0           1           1           0
           0           0           1           0           0           0
           0           0           4          41           0           0
           0           0           0           0           0           0
           0           0           0           0           0           0
           0           0           0           0           0           0
           0           0           0           0           0           0
           0           0           0           0           0           0
           0           0           0           0           0           0
           0           0           0           0
Num RLSW                                   I               41
RLSW                                       R   N=          41
  1.00000000E+00  1.00000000E+00  1.00000000E+00  1.00000000E+00  1.00000000E+00
  0.00000000E+00  0.00000000E+00  1.00000000E+00  0.00000000E+00  0.00000000E+00
  0.00000000E+00  0.00000000E+00  1.00000000E+00  0.00000000E+00  0.00000000E+00
  0.00000000E+00  0.00000000E+00  1.00000000E+00  0.00000000E+00  0.00000000E+00
  0.00000000E+00  0.00000000E+00  1.00000000E+00  0.00000000E+00  0.00000000E+00
  0.00000000E+00  0.00000000E+00  1.00000000E+00  0.00000000E+00  0.00000000E+00
  0.00000000E+00  0.00000000E+00  1.00000000E+00  0.00000000E+00  0.00000000E+00
  0.00000000E+00  0.00000000E+00  0.00000000E+00  1.00000000E+00  1.00000000E+00
  0.00000000E+00
MxBond                                     I                3
NBond                                      I   N=           4
           1           3           1           1
IBond                                      I   N=          12
           2           0           0           1           3           4
           2           0           0           2           0           0
RBond                                      R   N=          12
  2.00000000E+00  0.00000000E+00  0.00000000E+00  2.00000000E+00  1.00000000E+00
  1.00000000E+00  1.00000000E+00  0.00000000E+00  0.00000000E+00  1.00000000E+00
  0.00000000E+00  0.00000000E+00
Virial Ratio                               R      2.002727035734277E+00
SCF Energy                                 R     -1.138831487426331E+02
MP2 Energy                                 R     -1.142188773490157E+02
Total Energy                               R     -1.142188773490157E+02
Post-SCF wavefunction norm                 R      1.488320290367024E+00
RMS Force                                  R      8.388503610826974E-08
RMS Density                                R      2.656259707838468E-09
Job Status                                 I                1
Nuclear derivative order                   I                3
External E-field                           R   N=          35
  0.00000000E+00  0.00000000E+00  0.00000000E+00  0.00000000E+00  0.00000000E+00
  0.00000000E+00  0.00000000E+00  0.00000000E+00  0.00000000E+00  0.00000000E+00
  0.00000000E+00  0.00000000E+00  0.00000000E+00  0.00000000E+00  0.00000000E+00
  0.00000000E+00  0.00000000E+00  0.00000000E+00  0.00000000E+00  0.00000000E+00
  0.00000000E+00  0.00000000E+00  0.00000000E+00  0.00000000E+00  0.00000000E+00
  0.00000000E+00  0.00000000E+00  0.00000000E+00  0.00000000E+00  0.00000000E+00
  0.00000000E+00  0.00000000E+00  0.00000000E+00  0.00000000E+00  0.00000000E+00
IOpCl                                      I                0
IROHF                                      I                0
Alpha Orbital Energies                     R   N=          64
 -2.05902695E+01 -1.13566874E+01 -1.40040188E+00 -8.73584439E-01 -6.90862500E-01
 -6.48789946E-01 -5.30367783E-01 -4.44655708E-01  3.25707774E-02  5.04321806E-02
  6.74303397E-02  8.95970065E-02  1.45165001E-01  1.55577164E-01  1.59762031E-01
  2.19706808E-01  2.56231057E-01  2.65594060E-01  2.67368714E-01  3.22345326E-01
  3.41125491E-01  3.54005964E-01  4.45569293E-01  4.50529746E-01  4.67291940E-01
  5.11438270E-01  5.50661956E-01  5.54221804E-01  5.95046966E-01  6.15935929E-01
  6.40070944E-01  6.80529438E-01  7.48148188E-01  8.43232930E-01  8.89020965E-01
  9.94560287E-01  1.05339127E+00  1.20860195E+00  1.21389693E+00  1.22637587E+00
  1.27370232E+00  1.41885418E+00  1.49236566E+00  1.49282798E+00  1.62346995E+00
  1.62471686E+00  1.81099890E+00  1.81684249E+00  1.93885742E+00  1.95147308E+00
  2.06981659E+00  2.13626728E+00  2.16839062E+00  2.21695350E+00  2.37560879E+00
  2.53442621E+00  2.65326539E+00  2.92410482E+00  3.28324904E+00  3.68746010E+00
  3.69739575E+00  3.73755736E+00  3.87638558E+00  4.02586467E+00
Alpha MO coefficients                      R   N=        4096
  9.97299384E-01  1.68039101E-02 -1.09910012E-02 -5.18516363E-03  0.00000000E+00
  0.00000000E+00 -1.81353435E-03  0.00000000E+00  0.00000000E+00  3.83958121E-03
  0.00000000E+00  0.00000000E+00  1.23331246E-03  2.38789353E-04  0.00000000E+00
  0.00000000E+00 -1.91407918E-04  0.00000000E+00 -7.44449384E-04  0.00000000E+00
  0.00000000E+00 -3.66779914E-05  0.00000000E+00  1.23976097E-04  6.51519489E-04
  6.55501024E-03  2.87719902E-03  0.00000000E+00  0.00000000E+00  4.31670489E-04
  0.00000000E+00  0.00000000E+00  5.52074864E-03  0.00000000E+00  0.00000000E+00
  2.15706876E-04 -4.76721776E-04  0.00000000E+00  0.00000000E+00 -3.35471523E-04
  0.00000000E+00  2.64137144E-03  0.00000000E+00  0.00000000E+00  6.81301526E-04
  0.00000000E+00 -2.73162275E-04  1.17272123E-03 -3.93719024E-04  0.00000000E+00
  1.71901436E-04 -3.09742482E-04  0.00000000E+00  2.41408372E-04  6.69345564E-04
 -2.73162275E-04  1.17272123E-03 -3.93719024E-04  0.00000000E+00 -1.71901436E-04
 -3.09742482E-04  0.00000000E+00 -2.41408372E-04  6.69345564E-04 -3.29460443E-04
  6.38302428E-04 -1.00206518E-03  1.95135415E-06  0.00000000E+00  0.00000000E+00
 -5.07910984E-04  0.00000000E+00  0.00000000E+00  1.93105584E-03  0.00000000E+00
  0.00000000E+00  1.08131941E-04  3.23150693E-04  0.00000000E+00  0.00000000E+00
  4.54191730E-05  0.00000000E+00 -1.26825381E-03  0.00000000E+00  0.00000000E+00
  8.83881061E-05  0.00000000E+00  9.97715408E-01  2.02563128E-02 -2.00552361E-02
 -5.80828744E-03  0.00000000E+00  0.00000000E+00  8.85264810E-04  0.00000000E+00
  0.00000000E+00  4.86063656E-03  0.00000000E+00  0.00000000E+00  8.74463722E-04
  7.83385895E-04  0.00000000E+00  0.00000000E+00 -6.21116971E-04  0.00000000E+00
 -8.99187607E-04  0.00000000E+00  0.00000000E+00  1.08270100E-03  0.00000000E+00
  2.75490617E-04  9.76588796E-03  1.07272896E-03  0.00000000E+00  3.12723864E-04
 -1.99835693E-04  0.00000000E+00 -2.90047852E-03  1.26079799E-03  2.75490617E-04
  9.76588796E-03  1.07272896E-03  0.00000000E+00 -3.12723864E-04 -1.99835693E-04
  0.00000000E+00  2.90047852E-03  1.26079799E-03 -1.96709798E-01  4.08082257E-01
  4.25699430E-01  3.18085662E-02  0.00000000E+00  0.00000000E+00 -1.31403338E-01
  0.00000000E+00  0.00000000E+00 -4.33587336E-02  0.00000000E+00  0.00000000E+00
  9.45949025E-04  1.72761572E-02  0.00000000E+00  0.00000000E+00 -1.85306946E-05
  0.00000000E+00 -5.84813860E-03  0.00000000E+00  0.00000000E+00 -6.72249812E-04
  0.00000000E+00 -1.04121921E-01  2.13023213E-01  7.61691193E-02 -7.45739581E-03
  0.00000000E+00  0.00000000E+00  1.82068247E-01  0.00000000E+00  0.00000000E+00
 -1.67273769E-02  0.00000000E+00  0.00000000E+00 -2.99322376E-03  3.99010261E-02
  0.00000000E+00  0.00000000E+00  8.44538275E-03  0.00000000E+00 -2.93438283E-02
  0.00000000E+00  0.00000000E+00 -5.24323740E-03  0.00000000E+00  3.93682920E-02
 -2.19695752E-02  1.24164660E-03  0.00000000E+00 -7.66783025E-03  9.35599646E-03
  0.00000000E+00 -6.63133362E-04 -1.21113648E-02  3.93682920E-02 -2.19695752E-02
  1.24164660E-03  0.00000000E+00  7.66783025E-03  9.35599646E-03  0.00000000E+00
  6.63133362E-04 -1.21113648E-02  8.59601104E-02 -1.92354721E-01 -2.67248377E-01
 -4.92209216E-02  0.00000000E+00  0.00000000E+00 -1.51300773E-01  0.00000000E+00
  0.00000000E+00 -9.43393432E-02  0.00000000E+00  0.00000000E+00  8.21611035E-03
  6.35517297E-03  0.00000000E+00  0.00000000E+00  1.29590002E-03  0.00000000E+00
  1.46748396E-02  0.00000000E+00  0.00000000E+00 -1.99389938E-03  0.00000000E+00
 -1.58182579E-01  3.40330732E-01  1.98663586E-01 -7.90884397E-03  0.00000000E+00
  0.00000000E+00 -1.69173004E-01  0.00000000E+00  0.00000000E+00 -4.32186531E-02
  0.00000000E+00  0.00000000E+00 -6.58976156E-04 -6.57973525E-03  0.00000000E+00
  0.00000000E+00 -9.11168751E-03  0.00000000E+00  3.89811786E-02  0.00000000E+00
  0.00000000E+00  3.02959069E-02  0.00000000E+00  2.39138737E-01  8.36476076E-02
  3.34675773E-03  0.00000000E+00 -2.46125986E-02  1.14070524E-02  0.00000000E+00
  3.38061347E-03  2.83987081E-02  2.39138737E-01  8.36476076E-02  3.34675773E-03
  0.00000000E+00  2.46125986E-02  1.14070524E-02  0.00000000E+00 -3.38061347E-03
  2.83987081E-02  0.00000000E+00  0.00000000E+00  0.00000000E+00  0.00000000E+00
  0.00000000E+00  3.32130311E-01  0.00000000E+00  0.00000000E+00  2.19845918E-01
  0.00000000E+00  0.00000000E+00  1.23422606E-02  0.00000000E+00  0.00000000E+00
  0.00000000E+00 -1.70074437E-02  0.00000000E+00  0.00000000E+00  0.00000000E+00
  0.00000000E+00 -1.94124783E-02  0.00000000E+00  0.00000000E+00  0.00000000E+00
  0.00000000E+00  0.00000000E+00  0.00000000E+00  0.00000000E+00  4.02225988E-01
  0.00000000E+00  0.00000000E+00  7.66644007E-03  0.00000000E+00  0.00000000E+00
 -1.39954869E-02  0.00000000E+00  0.00000000E+00  0.00000000E+00  1.79160889E-03
  0.00000000E+00  0.00000000E+00  0.00000000E+00  0.00000000E+00 -4.47184018E-03
  0.00000000E+00  0.00000000E+00  2.51736671E-01  2.05933837E-01  1.46381224E-02
  0.00000000E+00 -1.40796188E-02  1.16992213E-02  0.00000000E+00 -4.41097979E-02
  3.45654284E-02 -2.51736671E-01 -2.05933837E-01 -1.46381224E-02  0.00000000E+00
 -1.40796188E-02 -1.16992213E-02  0.00000000E+00 -4.41097979E-02 -3.45654284E-02
 -6.47805003E-02  1.46238623E-01  2.74736007E-01  1.16527632E-01  0.00000000E+00
  0.00000000E+00  4.98927059E-01  0.00000000E+00  0.00000000E+00  2.44866661E-01
  0.00000000E+00  0.00000000E+00  3.88262522E-03 -2.37974540E-02  0.00000000E+00
  0.00000000E+00 -7.18506702E-04  0.00000000E+00  5.54993764E-03  0.00000000E+00
  0.00000000E+00 -2.47442717E-03  0.00000000E+00  1.53118631E-02 -5.77138318E-02
 -7.55372984E-02 -5.41927979E-02  0.00000000E+00  0.00000000E+00 -3.90896588E-01
  0.00000000E+00  0.00000000E+00 -9.49540264E-02  0.00000000E+00  0.00000000E+00
 -6.26999419E-03 -3.74174556E-02  0.00000000E+00  0.00000000E+00 -9.96163098E-03
  0.00000000E+00  3.32875113E-02  0.00000000E+00  0.00000000E+00  1.64934194E-02
  0.00000000E+00  1.30621742E-01  8.50081475E-02  7.99824085E-03  0.00000000E+00
 -1.11224319E-02 -1.47455650E-03  0.00000000E+00 -4.47844522E-03  2.12413539E-02
  1.30621742E-01  8.50081475E-02  7.99824085E-03  0.00000000E+00  1.11224319E-02
 -1.47455650E-03  0.00000000E+00  4.47844522E-03  2.12413539E-02  0.00000000E+00
  0.00000000E+00  0.00000000E+00  0.00000000E+00  4.89444974E-01  0.00000000E+00
  0.00000000E+00  3.53818322E-01  0.00000000E+00  0.00000000E+00  4.87516879E-02
  0.00000000E+00  0.00000000E+00  0.00000000E+00 -2.46723157E-02  0.00000000E+00
  0.00000000E+00  0.00000000E+00  0.00000000E+00 -3.16628124E-02  0.00000000E+00
  0.00000000E+00  0.00000000E+00  0.00000000E+00  0.00000000E+00  0.00000000E+00
  0.00000000E+00  3.26501666E-01  0.00000000E+00  0.00000000E+00  1.74113743E-01
  0.00000000E+00  0.00000000E+00  3.59157765E-03  0.00000000E+00  0.00000000E+00
  0.00000000E+00  4.46066087E-02  0.00000000E+00  0.00000000E+00  0.00000000E+00
  0.00000000E+00 -9.78362490E-03  0.00000000E+00  0.00000000E+00  0.00000000E+00
  0.00000000E+00  0.00000000E+00  0.00000000E+00  1.01295294E-02  0.00000000E+00
  0.00000000E+00 -6.42185384E-03  0.00000000E+00  0.00000000E+00  0.00000000E+00
  0.00000000E+00  0.00000000E+00  1.01295294E-02  0.00000000E+00  0.00000000E+00
 -6.42185384E-03  0.00000000E+00  0.00000000E+00  0.00000000E+00  0.00000000E+00
  0.00000000E+00  0.00000000E+00  0.00000000E+00  5.45754178E-01  0.00000000E+00
  0.00000000E+00  4.05293329E-01  0.00000000E+00  0.00000000E+00  1.02115168E-01
  0.00000000E+00  0.00000000E+00  0.00000000E+00 -8.12016280E-03  0.00000000E+00
  0.00000000E+00  0.00000000E+00  0.00000000E+00 -8.87852615E-03  0.00000000E+00
  0.00000000E+00  0.00000000E+00  0.00000000E+00  0.00000000E+00  0.00000000E+00
  0.00000000E+00 -1.91565124E-01  0.00000000E+00  0.00000000E+00 -1.54491621E-01
  0.00000000E+00  0.00000000E+00 -6.15121763E-02  0.00000000E+00  0.00000000E+00
  0.00000000E+00  7.35097198E-02  0.00000000E+00  0.00000000E+00  0.00000000E+00
  0.00000000E+00  8.87976388E-03  0.00000000E+00  0.00000000E+00 -2.32768736E-01
 -9.04466398E-02  3.07015240E-02  0.00000000E+00  3.13736295E-03 -8.00115343E-03
  0.00000000E+00 -3.92510392E-03  2.41283367E-02  2.32768736E-01  9.04466398E-02
 -3.07015240E-02  0.00000000E+00  3.13736295E-03  8.00115343E-03  0.00000000E+00
 -3.92510392E-03 -2.41283367E-02 -1.87365137E-03  1.35562023E-02 -5.66732063E-02
 -8.49445285E-01  0.00000000E+00  0.00000000E+00  2.57591302E-02  0.00000000E+00
  0.00000000E+00  7.25291733E-02  0.00000000E+00  0.00000000E+00  2.92888473E-01
  6.23916971E-04  0.00000000E+00  0.00000000E+00 -2.14359817E-05  0.00000000E+00
 -8.77606362E-03  0.00000000E+00  0.00000000E+00  2.01973051E-03  0.00000000E+00
 -3.06937041E-02  3.59557514E-02  7.74066569E-01  3.52020274E+00  0.00000000E+00
  0.00000000E+00 -5.62609589E-02  0.00000000E+00  0.00000000E+00 -8.59830994E-02
  0.00000000E+00  0.00000000E+00 -1.49546882E-01  7.94872132E-04  0.00000000E+00
  0.00000000E+00  4.62802086E-04  0.00000000E+00  8.61235128E-02  0.00000000E+00
  0.00000000E+00 -5.18169161E-02  0.00000000E+00  6.34569127E-03 -5.13951185E-01
 -1.64806557E+00  0.00000000E+00 -4.36211851E-03  8.84282150E-04  0.00000000E+00
  1.32474674E-01 -2.32306813E-02  6.34569127E-03 -5.13951185E-01 -1.64806557E+00
  0.00000000E+00  4.36211851E-03  8.84282150E-04  0.00000000E+00 -1.32474674E-01
 -2.32306813E-02  0.00000000E+00  0.00000000E+00  0.00000000E+00  0.00000000E+00
  0.00000000E+00  8.95085416E-03  0.00000000E+00  0.00000000E+00  2.82343978E-02
  0.00000000E+00  0.00000000E+00  4.11811008E-01  0.00000000E+00  0.00000000E+00
  0.00000000E+00  4.72764106E-03  0.00000000E+00  0.00000000E+00  0.00000000E+00
  0.00000000E+00 -1.81501486E-02  0.00000000E+00  0.00000000E+00  0.00000000E+00
  0.00000000E+00  0.00000000E+00  0.00000000E+00  0.00000000E+00 -7.15178772E-02
  0.00000000E+00  0.00000000E+00 -4.77332672E-01  0.00000000E+00  0.00000000E+00
 -2.40908755E+00  0.00000000E+00  0.00000000E+00  0.00000000E+00  2.57523567E-03
  0.00000000E+00  0.00000000E+00  0.00000000E+00  0.00000000E+00  7.50248036E-04
  0.00000000E+00  0.00000000E+00 -2.08368766E-02  6.28340682E-01  4.72587545E+00
  0.00000000E+00  1.71289720E-03 -2.09540773E-03  0.00000000E+00 -1.18173639E-01
  1.44956977E-01  2.08368766E-02 -6.28340682E-01 -4.72587545E+00  0.00000000E+00
  1.71289720E-03  2.09540773E-03  0.00000000E+00 -1.18173639E-01 -1.44956977E-01
  0.00000000E+00  0.00000000E+00  0.00000000E+00  0.00000000E+00 -2.39688123E-01
  0.00000000E+00  0.00000000E+00 -1.91930044E-01  0.00000000E+00  0.00000000E+00
 -6.02817372E-01  0.00000000E+00  0.00000000E+00  0.00000000E+00 -3.00175489E-03
  0.00000000E+00  0.00000000E+00  0.00000000E+00  0.00000000E+00  9.56656185E-03
  0.00000000E+00  0.00000000E+00  0.00000000E+00  0.00000000E+00  0.00000000E+00
  0.00000000E+00  0.00000000E+00  1.89007371E-01  0.00000000E+00  0.00000000E+00
  2.31153867E-01  0.00000000E+00  0.00000000E+00  1.20117568E+00  0.00000000E+00
  0.00000000E+00  0.00000000E+00 -2.99487423E-02  0.00000000E+00  0.00000000E+00
  0.00000000E+00  0.00000000E+00 -2.38745144E-02  0.00000000E+00  0.00000000E+00
  0.00000000E+00  0.00000000E+00  0.00000000E+00  0.00000000E+00  1.69510363E-02
  0.00000000E+00  0.00000000E+00 -2.13035472E-02  0.00000000E+00  0.00000000E+00
  0.00000000E+00  0.00000000E+00  0.00000000E+00  1.69510363E-02  0.00000000E+00
  0.00000000E+00 -2.13035472E-02  0.00000000E+00  0.00000000E+00 -2.75666954E-02
  4.72462515E-02  3.28824839E-01  2.67002491E+00  0.00000000E+00  0.00000000E+00
  9.86392404E-03  0.00000000E+00  0.00000000E+00 -2.14279377E-01  0.00000000E+00
  0.00000000E+00 -3.11673221E-01  4.12186441E-03  0.00000000E+00  0.00000000E+00
 -8.58103403E-04  0.00000000E+00  1.82755246E-02  0.00000000E+00  0.00000000E+00
  6.45965976E-03  0.00000000E+00  8.56015629E-03 -3.50273931E-02 -2.54735372E-02
 -9.68289803E-01  0.00000000E+00  0.00000000E+00 -1.07971740E-02  0.00000000E+00
  0.00000000E+00 -7.95785909E-01  0.00000000E+00  0.00000000E+00 -1.91682894E+00
 -6.58703961E-03  0.00000000E+00  0.00000000E+00  3.12333086E-03  0.00000000E+00
 -1.44686273E-01  0.00000000E+00  0.00000000E+00 -9.22760871E-02  0.00000000E+00
 -6.28971481E-03 -6.90348210E-01 -3.38146118E-01  0.00000000E+00 -3.55578673E-03
 -7.44353799E-03  0.00000000E+00  1.50879033E-01 -5.73023909E-02 -6.28971481E-03
 -6.90348210E-01 -3.38146118E-01  0.00000000E+00  3.55578673E-03 -7.44353799E-03
  0.00000000E+00 -1.50879033E-01 -5.73023909E-02  0.00000000E+00  0.00000000E+00
  0.00000000E+00  0.00000000E+00  2.26166363E-01  0.00000000E+00  0.00000000E+00
  2.62128759E-01  0.00000000E+00  0.00000000E+00  5.74055041E-02  0.00000000E+00
  0.00000000E+00  0.00000000E+00  1.16909404E-02  0.00000000E+00  0.00000000E+00
  0.00000000E+00  0.00000000E+00 -4.81872924E-03  0.00000000E+00  0.00000000E+00
  0.00000000E+00  0.00000000E+00  0.00000000E+00  0.00000000E+00  0.00000000E+00
 -3.99375646E-01  0.00000000E+00  0.00000000E+00 -4.86706769E-01  0.00000000E+00
  0.00000000E+00  9.00985944E-01  0.00000000E+00  0.00000000E+00  0.00000000E+00
  1.95500557E-02  0.00000000E+00  0.00000000E+00  0.00000000E+00  0.00000000E+00
  2.60536093E-04  0.00000000E+00  0.00000000E+00  0.00000000E+00  0.00000000E+00
  0.00000000E+00  0.00000000E+00 -3.81040097E-03  0.00000000E+00  0.00000000E+00
 -2.29270480E-01  0.00000000E+00  0.00000000E+00  0.00000000E+00  0.00000000E+00
  0.00000000E+00 -3.81040097E-03  0.00000000E+00  0.00000000E+00 -2.29270480E-01
  0.00000000E+00  0.00000000E+00  0.00000000E+00  0.00000000E+00  0.00000000E+00
  0.00000000E+00  0.00000000E+00  4.80791379E-02  0.00000000E+00  0.00000000E+00
  1.87865457E-02  0.00000000E+00  0.00000000E+00  7.95423630E-01  0.00000000E+00
  0.00000000E+00  0.00000000E+00 -3.55963706E-03  0.00000000E+00  0.00000000E+00
  0.00000000E+00  0.00000000E+00 -2.43201038E-02  0.00000000E+00  0.00000000E+00
  0.00000000E+00  0.00000000E+00  0.00000000E+00  0.00000000E+00  0.00000000E+00
  1.48559211E-01  0.00000000E+00  0.00000000E+00 -1.46710386E+00  0.00000000E+00
  0.00000000E+00 -5.42899925E+00  0.00000000E+00  0.00000000E+00  0.00000000E+00
  5.31698851E-03  0.00000000E+00  0.00000000E+00  0.00000000E+00  0.00000000E+00
  3.47239762E-01  0.00000000E+00  0.00000000E+00  5.52595428E-02  2.78802511E+00
  5.93010747E+00  0.00000000E+00 -2.15693252E-02  8.69540957E-03  0.00000000E+00
 -5.34003904E-01  3.91356721E-01 -5.52595428E-02 -2.78802511E+00 -5.93010747E+00
  0.00000000E+00 -2.15693252E-02 -8.69540957E-03  0.00000000E+00 -5.34003904E-01
 -3.91356721E-01  1.06034404E-02 -1.33185168E-02 -1.36256756E-01 -2.91516353E+00
  0.00000000E+00  0.00000000E+00 -4.48474745E-02  0.00000000E+00  0.00000000E+00
  1.37209767E-01  0.00000000E+00  0.00000000E+00  9.55634115E-01  2.37679751E-03
  0.00000000E+00  0.00000000E+00 -1.54408822E-03  0.00000000E+00 -5.95048499E-02
  0.00000000E+00  0.00000000E+00  2.20201768E-02  0.00000000E+00  2.92534397E-02
 -2.08190985E-01  2.02549373E+00  9.39981690E+00  0.00000000E+00  0.00000000E+00
  1.30025129E-01  0.00000000E+00  0.00000000E+00 -1.26931585E-01  0.00000000E+00
  0.00000000E+00 -8.14295866E-01  8.67986746E-03  0.00000000E+00  0.00000000E+00
  3.32639011E-03  0.00000000E+00  6.78280070E-02  0.00000000E+00  0.00000000E+00
 -2.51471554E-01  0.00000000E+00 -3.16967111E-02 -2.03930489E+00 -2.42113743E+00
  0.00000000E+00  2.43782635E-02 -1.92359776E-02  0.00000000E+00  4.13567636E-01
 -2.04877489E-01 -3.16967111E-02 -2.03930489E+00 -2.42113743E+00  0.00000000E+00
 -2.43782635E-02 -1.92359776E-02  0.00000000E+00 -4.13567636E-01 -2.04877489E-01
 -1.04350567E-02 -1.28303511E-02  2.63430233E-01  2.47096593E+00  0.00000000E+00
  0.00000000E+00  7.68914712E-02  0.00000000E+00  0.00000000E+00 -1.26907916E-01