 Entering Gaussian System, Link 0=g09
 Input=OCHT_freq.gjf
 Output=OCHT_freq.log
 Initial command:
 /usr/local/gaussian/g09/l1.exe "/scratch/Gau-14557.inp" -scrdir="/scratch/"
 Entering Link 1 = /usr/local/gaussian/g09/l1.exe PID=     14558.
  
 Copyright (c) 1988,1990,1992,1993,1995,1998,2003,2009,2015,
            Gaussian, Inc.  All Rights Reserved.
  
 This is part of the Gaussian(R) 09 program.  It is based on
 the Gaussian(R) 03 system (copyright 2003, Gaussian, Inc.),
 the Gaussian(R) 98 system (copyright 1998, Gaussian, Inc.),
 the Gaussian(R) 94 system (copyright 1995, Gaussian, Inc.),
 the Gaussian 92(TM) system (copyright 1992, Gaussian, Inc.),
 the Gaussian 90(TM) system (copyright 1990, Gaussian, Inc.),
 the Gaussian 88(TM) system (copyright 1988, Gaussian, Inc.),
 the Gaussian 86(TM) system (copyright 1986, Carnegie Mellon
 University), and the Gaussian 82(TM) system (copyright 1983,
 Carnegie Mellon University). Gaussian is a federally registered
 trademark of Gaussian, Inc.
  
 This software contains proprietary and confidential information,
 including trade secrets, belonging to Gaussian, Inc.
  
 This software is provided under written license and may be
 used, copied, transmitted, or stored only in accord with that
 written license.
  
 The following legend is applicable only to US Government
 contracts under FAR:
  
                    RESTRICTED RIGHTS LEGEND
  
 Use, reproduction and disclosure by the US Government is
 subject to restrictions as set forth in subparagraphs (a)
 and (c) of the Commercial Computer Software - Restricted
 Rights clause in FAR 52.227-19.
  
 Gaussian, Inc.
 340 Quinnipiac St., Bldg. 40, Wallingford CT 06492
  
  
 ---------------------------------------------------------------
 Warning -- This program may not be used in any manner that
 competes with the business of Gaussian, Inc. or will provide
 assistance to any competitor of Gaussian, Inc.  The licensee
 of this program is prohibited from giving any competitor of
 Gaussian, Inc. access to this program.  By using this program,
 the user acknowledges that Gaussian, Inc. is engaged in the
 business of creating and licensing software in the field of
 computational chemistry and represents and warrants to the
 licensee that it is not a competitor of Gaussian, Inc. and that
 it will not use this program in any manner prohibited above.
 ---------------------------------------------------------------
  

 Cite this work as:
 Gaussian 09, Revision E.01,
 M. J. Frisch, G. W. Trucks, H. B. Schlegel, G. E. Scuseria, 
 M. A. Robb, J. R. Cheeseman, G. Scalmani, V. Barone, B. Mennucci, 
 G. A. Petersson, H. Nakatsuji, M. Caricato, X. Li, H. P. Hratchian, 
 A. F. Izmaylov, J. Bloino, G. Zheng, J. L. Sonnenberg, M. Hada, 
 M. Ehara, K. Toyota, R. Fukuda, J. Hasegawa, M. Ishida, T. Nakajima, 
 Y. Honda, O. Kitao, H. Nakai, T. Vreven, J. A. Montgomery, Jr., 
 J. E. Peralta, F. Ogliaro, M. Bearpark, J. J. Heyd, E. Brothers, 
 K. N. Kudin, V. N. Staroverov, T. Keith, R. Kobayashi, J. Normand, 
 K. Raghavachari, A. Rendell, J. C. Burant, S. S. Iyengar, J. Tomasi, 
 M. Cossi, N. Rega, J. M. Millam, M. Klene, J. E. Knox, J. B. Cross, 
 V. Bakken, C. Adamo, J. Jaramillo, R. Gomperts, R. E. Stratmann, 
 O. Yazyev, A. J. Austin, R. Cammi, C. Pomelli, J. W. Ochterski, 
 R. L. Martin, K. Morokuma, V. G. Zakrzewski, G. A. Voth, 
 P. Salvador, J. J. Dannenberg, S. Dapprich, A. D. Daniels, 
 O. Farkas, J. B. Foresman, J. V. Ortiz, J. Cioslowski, 
 and D. J. Fox, Gaussian, Inc., Wallingford CT, 2013.
 
 ******************************************
 Gaussian 09:  ES64L-G09RevE.01 30-Nov-2015
                 6-Oct-2020 
 ******************************************
 %Chk=OCHT_freq.chk
 %NProc=28
 Will use up to   28 processors via shared memory.
 %Mem=1000MB
 ----------------------------------------------------------------------
 #MP2/aug-cc-pvdz #Density=current #Opt=VeryTight #Frequency=Anharmonic
 ----------------------------------------------------------------------
 1/7=1,18=20,19=15,38=1,80=1/1,3;
 2/9=110,12=2,17=6,18=5,40=1/2;
 3/5=16,7=10,11=9,16=1,25=1,30=1,71=1/1,2,3;
 4//1;
 5/5=2,38=5/2;
 8/6=4,10=1/1;
 9/15=2,16=-3/6;
 10/5=1/2;
 6/7=2,8=2,9=2,10=2,22=-1/1;
 7/12=2/1,2,3,16;
 1/7=1,18=20,19=15,80=1/3(2);
 2/9=110/2;
 99/8=1000/99;
 2/9=110/2;
 3/5=16,7=10,11=9,16=1,25=1,30=1,71=1/1,2,3;
 4/5=5,16=3,69=1/1;
 5/5=2,38=5/2;
 8/6=4,10=1/1;
 9/15=2,16=-3/6;
 10/5=1/2;
 7/12=2/1,2,3,16;
 1/7=1,18=20,19=15,80=1/3(-8);
 2/9=110/2;
 6/7=2,8=2,9=2,10=2,22=-1/1;
 99/8=1000/99;
 -----------------
 Formaldahyde freq
 -----------------
 Symbolic Z-matrix:
 Charge =  0 Multiplicity = 1
 O
 C                    1    ROC
 H                    2    RCH      1    A
 H(Iso=3)             2    RCH      1    A        3    D        0
       Variables:
  ROC                   1.22                     
  RCH                   1.07                     
  A                   120.                       
  D                   180.                       
 

 GradGradGradGradGradGradGradGradGradGradGradGradGradGradGradGradGradGrad
 Berny optimization.
 Initialization pass.
                           ----------------------------
                           !    Initial Parameters    !
                           ! (Angstroms and Degrees)  !
 --------------------------                            --------------------------
 ! Name  Definition              Value          Derivative Info.                !
 --------------------------------------------------------------------------------
 ! R1    R(1,2)                  1.22           estimate D2E/DX2                !
 ! R2    R(2,3)                  1.07           estimate D2E/DX2                !
 ! R3    R(2,4)                  1.07           estimate D2E/DX2                !
 ! A1    A(1,2,3)              120.0            estimate D2E/DX2                !
 ! A2    A(1,2,4)              120.0            estimate D2E/DX2                !
 ! A3    A(3,2,4)              120.0            estimate D2E/DX2                !
 ! D1    D(1,2,4,3)            180.0            estimate D2E/DX2                !
 --------------------------------------------------------------------------------
 Trust Radius=3.00D-01 FncErr=1.00D-07 GrdErr=1.00D-07
 Number of steps in this run=     20 maximum allowed number of steps=    100.
 GradGradGradGradGradGradGradGradGradGradGradGradGradGradGradGradGradGrad

                          Input orientation:                          
 ---------------------------------------------------------------------
 Center     Atomic      Atomic             Coordinates (Angstroms)
 Number     Number       Type             X           Y           Z
 ---------------------------------------------------------------------
      1          8           0        0.000000    0.000000    0.000000
      2          6           0        0.000000    0.000000    1.220000
      3          1           0        0.926647    0.000000    1.755000
      4          1           0       -0.926647    0.000000    1.755000
 ---------------------------------------------------------------------
                    Distance matrix (angstroms):
                    1          2          3          4
     1  O    0.000000
     2  C    1.220000   0.000000
     3  H    1.984616   1.070000   0.000000
     4  H    1.984616   1.070000   1.853294   0.000000
 Stoichiometry    CH2O
 Framework group  C2V[C2(CO),SGV(H2)]
 Deg. of freedom     3
 Full point group                 C2V     NOp   4
 Largest Abelian subgroup         C2V     NOp   4
 Largest concise Abelian subgroup C2      NOp   2
                         Standard orientation:                         
 ---------------------------------------------------------------------
 Center     Atomic      Atomic             Coordinates (Angstroms)
 Number     Number       Type             X           Y           Z
 ---------------------------------------------------------------------
      1          8           0        0.000000    0.000000    0.676875
      2          6           0        0.000000   -0.000000   -0.543125
      3          1           0       -0.000000    0.926647   -1.078125
      4          1           0       -0.000000   -0.926647   -1.078125
 ---------------------------------------------------------------------
 Rotational constants (GHZ):    167.0088580     31.8526247     26.7506327
 Standard basis: Aug-CC-pVDZ (5D, 7F)
 There are    33 symmetry adapted cartesian basis functions of A1  symmetry.
 There are     6 symmetry adapted cartesian basis functions of A2  symmetry.
 There are    12 symmetry adapted cartesian basis functions of B1  symmetry.
 There are    17 symmetry adapted cartesian basis functions of B2  symmetry.
 There are    29 symmetry adapted basis functions of A1  symmetry.
 There are     6 symmetry adapted basis functions of A2  symmetry.
 There are    12 symmetry adapted basis functions of B1  symmetry.
 There are    17 symmetry adapted basis functions of B2  symmetry.
    64 basis functions,   108 primitive gaussians,    68 cartesian basis functions
     8 alpha electrons        8 beta electrons
       nuclear repulsion energy        31.3065517349 Hartrees.
 NAtoms=    4 NActive=    4 NUniq=    3 SFac= 1.78D+00 NAtFMM=   60 NAOKFM=F Big=F
 Integral buffers will be    131072 words long.
 Raffenetti 1 integral format.
 Two-electron integral symmetry is turned on.
 One-electron integrals computed using PRISM.
 NBasis=    64 RedAO= T EigKep=  8.02D-04  NBF=    29     6    12    17
 NBsUse=    64 1.00D-06 EigRej= -1.00D+00 NBFU=    29     6    12    17
 ExpMin= 2.97D-02 ExpMax= 1.17D+04 ExpMxC= 4.01D+02 IAcc=3 IRadAn=         5 AccDes= 0.00D+00
 Harris functional with IExCor=  205 and IRadAn=       5 diagonalized for initial guess.
 HarFok:  IExCor=  205 AccDes= 0.00D+00 IRadAn=         5 IDoV= 1 UseB2=F ITyADJ=14
 ICtDFT=  3500011 ScaDFX=  1.000000  1.000000  1.000000  1.000000
 FoFCou: FMM=F IPFlag=           0 FMFlag=      100000 FMFlg1=           0
         NFxFlg=           0 DoJE=T BraDBF=F KetDBF=T FulRan=T
         wScrn=  0.000000 ICntrl=     500 IOpCl=  0 I1Cent=   200000004 NGrid=           0
         NMat0=    1 NMatS0=      1 NMatT0=    0 NMatD0=    1 NMtDS0=    0 NMtDT0=    0
 Petite list used in FoFCou.
 Initial guess orbital symmetries:
       Occupied  (A1) (A1) (A1) (A1) (B2) (A1) (B1) (B2)
       Virtual   (B1) (A1) (B2) (A1) (B1) (A1) (B2) (A1) (A1) (B2)
                 (B1) (A1) (A2) (B2) (B1) (A1) (B2) (A1) (A1) (A1)
                 (B2) (B1) (A2) (B2) (A1) (B1) (A1) (B2) (A1) (B2)
                 (B1) (A2) (A1) (A1) (A2) (B2) (B1) (A1) (B2) (B1)
                 (A1) (B2) (A1) (B1) (A1) (A2) (B2) (A1) (A1) (B2)
                 (A1) (A2) (A1) (B1) (B2) (A1)
 The electronic state of the initial guess is 1-A1.
 Keep R1 ints in memory in symmetry-blocked form, NReq=3059338.
 Requested convergence on RMS density matrix=1.00D-08 within 128 cycles.
 Requested convergence on MAX density matrix=1.00D-06.
 Requested convergence on             energy=1.00D-06.
 No special actions if energy rises.
 SCF Done:  E(RHF) =  -113.882910911     A.U. after   11 cycles
            NFock= 11  Conv=0.36D-08     -V/T= 2.0014
 ExpMin= 2.97D-02 ExpMax= 1.17D+04 ExpMxC= 4.01D+02 IAcc=3 IRadAn=         5 AccDes= 0.00D+00
 HarFok:  IExCor=  205 AccDes= 0.00D+00 IRadAn=         5 IDoV=-2 UseB2=F ITyADJ=14
 ICtDFT= 12500011 ScaDFX=  1.000000  1.000000  1.000000  1.000000
 Range of M.O.s used for correlation:     3    64
 NBasis=    64 NAE=     8 NBE=     8 NFC=     2 NFV=     0
 NROrb=     62 NOA=     6 NOB=     6 NVA=    56 NVB=    56

 **** Warning!!: The largest alpha MO coefficient is  0.11980790D+02

 Fully direct method using O(ONN) memory.
 JobTyp=1 Pass  1:  I=   3 to   8 NPSUse= 10 ParTrn=T ParDer=T DoDerP=T.
 Spin components of T(2) and E(2):
     alpha-alpha T2 =       0.1313216596D-01 E2=     -0.4163422768D-01
     alpha-beta  T2 =       0.7922446509D-01 E2=     -0.2502417212D+00
     beta-beta   T2 =       0.1313216596D-01 E2=     -0.4163422768D-01
 ANorm=    0.1051422273D+01
 E2 =    -0.3335101765D+00 EUMP2 =    -0.11421642108766D+03
          IDoAtm=1111
          Differentiating once with respect to electric field.
                with respect to dipole field.
          Differentiating once with respect to nuclear coordinates.
 Keep R1 ints in memory in symmetry-blocked form, NReq=3037835.
          There are     1 degrees of freedom in the 1st order CPHF.  IDoFFX=0 NUNeed=     1.
 LinEq1:  Iter=  0 NonCon=     1 RMS=8.24D-03 Max=7.74D-02 NDo=     1
 AX will form     1 AO Fock derivatives at one time.
 LinEq1:  Iter=  1 NonCon=     1 RMS=2.61D-03 Max=1.83D-02 NDo=     1
 LinEq1:  Iter=  2 NonCon=     1 RMS=7.70D-04 Max=6.40D-03 NDo=     1
 LinEq1:  Iter=  3 NonCon=     1 RMS=2.13D-04 Max=1.71D-03 NDo=     1
 LinEq1:  Iter=  4 NonCon=     1 RMS=5.25D-05 Max=3.90D-04 NDo=     1
 LinEq1:  Iter=  5 NonCon=     1 RMS=1.26D-05 Max=9.11D-05 NDo=     1
 LinEq1:  Iter=  6 NonCon=     1 RMS=2.56D-06 Max=1.95D-05 NDo=     1
 LinEq1:  Iter=  7 NonCon=     1 RMS=3.63D-07 Max=2.54D-06 NDo=     1
 LinEq1:  Iter=  8 NonCon=     1 RMS=3.94D-08 Max=2.03D-07 NDo=     1
 LinEq1:  Iter=  9 NonCon=     1 RMS=4.31D-09 Max=2.78D-08 NDo=     1
 LinEq1:  Iter= 10 NonCon=     1 RMS=3.77D-10 Max=2.15D-09 NDo=     1
 LinEq1:  Iter= 11 NonCon=     0 RMS=3.02D-11 Max=1.53D-10 NDo=     1
 Linear equations converged to 1.000D-10 1.000D-09 after    11 iterations.
 End of Minotr F.D. properties file   721 does not exist.
 End of Minotr F.D. properties file   722 does not exist.
 End of Minotr F.D. properties file   788 does not exist.

 **********************************************************************

            Population analysis using the MP2 density.

 **********************************************************************

 Orbital symmetries:
       Occupied  (A1) (A1) (A1) (A1) (B2) (A1) (B1) (B2)
       Virtual   (A1) (B2) (B1) (A1) (B1) (B2) (A1) (A1) (A1) (B2)
                 (B1) (A1) (A2) (B2) (A1) (B1) (B2) (A1) (B2) (A1)
                 (A2) (B1) (A1) (B2) (A1) (B1) (A1) (B2) (A1) (B2)
                 (A2) (B1) (A1) (A1) (A2) (B2) (A1) (B1) (B2) (B1)
                 (A1) (B2) (A1) (B1) (A1) (A2) (B2) (A1) (A1) (B2)
                 (A1) (A2) (A1) (B1) (B2) (A1)
 The electronic state is 1-A1.
 Alpha  occ. eigenvalues --  -20.58672 -11.34673  -1.40143  -0.88200  -0.70486
 Alpha  occ. eigenvalues --   -0.64767  -0.52967  -0.44676
 Alpha virt. eigenvalues --    0.03281   0.04973   0.06831   0.08970   0.14623
 Alpha virt. eigenvalues --    0.15687   0.16010   0.21988   0.26188   0.26381
 Alpha virt. eigenvalues --    0.26784   0.32330   0.34144   0.36302   0.45438
 Alpha virt. eigenvalues --    0.45664   0.46756   0.51057   0.55099   0.55660
 Alpha virt. eigenvalues --    0.60035   0.61258   0.63570   0.69812   0.75971
 Alpha virt. eigenvalues --    0.84435   0.89342   1.00166   1.06853   1.21080
 Alpha virt. eigenvalues --    1.21370   1.22813   1.28686   1.41943   1.49568
 Alpha virt. eigenvalues --    1.50733   1.61356   1.62760   1.82387   1.82951
 Alpha virt. eigenvalues --    1.96266   1.97319   2.09039   2.13593   2.17271
 Alpha virt. eigenvalues --    2.25714   2.42826   2.55904   2.71636   2.99725
 Alpha virt. eigenvalues --    3.34597   3.69180   3.71029   3.73860   3.89150
 Alpha virt. eigenvalues --    4.03450
          Condensed to atoms (all electrons):
               1          2          3          4
     1  O    8.171738   0.276200  -0.019239  -0.019239
     2  C    0.276200   4.442575   0.250557   0.250557
     3  H   -0.019239   0.250557   1.150529  -0.196521
     4  H   -0.019239   0.250557  -0.196521   1.150529
 Mulliken charges:
               1
     1  O   -0.409460
     2  C    0.780111
     3  H   -0.185326
     4  H   -0.185326
 Sum of Mulliken charges =  -0.00000
 Mulliken charges with hydrogens summed into heavy atoms:
               1
     1  O   -0.409460
     2  C    0.409460
 Electronic spatial extent (au):  <R**2>=             60.7226
 Charge=             -0.0000 electrons
 Dipole moment (field-independent basis, Debye):
    X=              0.0000    Y=             -0.0000    Z=             -2.4519  Tot=              2.4519
 Quadrupole moment (field-independent basis, Debye-Ang):
   XX=            -11.8331   YY=            -11.7813   ZZ=            -12.5384
   XY=             -0.0000   XZ=             -0.0000   YZ=             -0.0000
 Traceless Quadrupole moment (field-independent basis, Debye-Ang):
   XX=              0.2178   YY=              0.2697   ZZ=             -0.4875
   XY=             -0.0000   XZ=             -0.0000   YZ=             -0.0000
 Octapole moment (field-independent basis, Debye-Ang**2):
  XXX=              0.0000  YYY=             -0.0000  ZZZ=              0.4198  XYY=              0.0000
  XXY=             -0.0000  XXZ=              0.5576  XZZ=              0.0000  YZZ=             -0.0000
  YYZ=             -0.7741  XYZ=              0.0000
 Hexadecapole moment (field-independent basis, Debye-Ang**3):
 XXXX=            -10.8805 YYYY=            -18.3921 ZZZZ=            -47.4400 XXXY=             -0.0000
 XXXZ=             -0.0000 YYYX=             -0.0000 YYYZ=              0.0000 ZZZX=             -0.0000
 ZZZY=             -0.0000 XXYY=             -5.2049 XXZZ=             -9.5751 YYZZ=            -10.8316
 XXYZ=             -0.0000 YYXZ=             -0.0000 ZZXY=             -0.0000
 N-N= 3.130655173495D+01 E-N=-3.309459370070D+02  KE= 1.140084156423D+02
 Symmetry A1   KE= 1.036928966421D+02
 Symmetry A2   KE= 2.439739868607D-02
 Symmetry B1   KE= 3.655025775954D+00
 Symmetry B2   KE= 6.636095825581D+00
 Calling FoFJK, ICntrl=  10002127 FMM=F ISym2X=1 I1Cent= 0 IOpClX= 0 NMat=1 NMatS=1 NMatT=0.
 ***** Axes restored to original set *****
 -------------------------------------------------------------------
 Center     Atomic                   Forces (Hartrees/Bohr)
 Number     Number              X              Y              Z
 -------------------------------------------------------------------
      1        8           0.000000000   -0.000000000   -0.014090893
      2        6          -0.000000000   -0.000000000   -0.022381256
      3        1           0.022283741    0.000000000    0.018236074
      4        1          -0.022283741    0.000000000    0.018236074
 -------------------------------------------------------------------
 Cartesian Forces:  Max     0.022381256 RMS     0.014016992

 GradGradGradGradGradGradGradGradGradGradGradGradGradGradGradGradGradGrad
 Berny optimization.
 FormGI is forming the generalized inverse of G from B-inverse, IUseBI=4.
 Internal  Forces:  Max     0.028416323 RMS     0.016355384
 Search for a local minimum.
 Step number   1 out of a maximum of   20
 All quantities printed in internal units (Hartrees-Bohrs-Radians)
 Mixed Optimization -- RFO/linear search
 Second derivative matrix not updated -- first step.
 The second derivative matrix:
                          R1        R2        R3        A1        A2
           R1           0.95383
           R2           0.00000   0.37230
           R3           0.00000   0.00000   0.37230
           A1           0.00000   0.00000   0.00000   0.16000
           A2           0.00000   0.00000   0.00000   0.00000   0.16000
           A3           0.00000   0.00000   0.00000   0.00000   0.00000
           D1           0.00000   0.00000   0.00000   0.00000   0.00000
                          A3        D1
           A3           0.16000
           D1           0.00000   0.00499
 ITU=  0
     Eigenvalues ---    0.00499   0.16000   0.16000   0.37230   0.37230
     Eigenvalues ---    0.95383
 RFO step:  Lambda=-4.84686190D-03 EMin= 4.99391718D-03
 Linear search not attempted -- first point.
 Iteration  1 RMS(Cart)=  0.03869099 RMS(Int)=  0.00066176
 Iteration  2 RMS(Cart)=  0.00068436 RMS(Int)=  0.00000028
 Iteration  3 RMS(Cart)=  0.00000024 RMS(Int)=  0.00000000
 ClnCor:  largest displacement from symmetrization is 7.25D-11 for atom     2.
 Variable       Old X    -DE/DX   Delta X   Delta X   Delta X     New X
                                 (Linear)    (Quad)   (Total)
    R1        2.30547   0.01409   0.00000   0.01470   0.01470   2.32016
    R2        2.02201   0.02842   0.00000   0.07535   0.07535   2.09735
    R3        2.02201   0.02842   0.00000   0.07535   0.07535   2.09735
    A1        2.09440   0.00313   0.00000   0.01902   0.01902   2.11341
    A2        2.09440   0.00313   0.00000   0.01902   0.01902   2.11341
    A3        2.09440  -0.00627   0.00000  -0.03803  -0.03803   2.05636
    D1        3.14159   0.00000   0.00000   0.00000   0.00000   3.14159
         Item               Value     Threshold  Converged?
 Maximum Force            0.028416     0.000002     NO 
 RMS     Force            0.016355     0.000001     NO 
 Maximum Displacement     0.047035     0.000006     NO 
 RMS     Displacement     0.038646     0.000004     NO 
 Predicted change in Energy=-2.456728D-03
 GradGradGradGradGradGradGradGradGradGradGradGradGradGradGradGradGradGrad

                          Input orientation:                          
 ---------------------------------------------------------------------
 Center     Atomic      Atomic             Coordinates (Angstroms)
 Number     Number       Type             X           Y           Z
 ---------------------------------------------------------------------
      1          8           0        0.000000   -0.000000   -0.024890
      2          6           0       -0.000000    0.000000    1.202888
      3          1           0        0.950450    0.000000    1.776001
      4          1           0       -0.950450   -0.000000    1.776001
 ---------------------------------------------------------------------
                    Distance matrix (angstroms):
                    1          2          3          4
     1  O    0.000000
     2  C    1.227778   0.000000
     3  H    2.036311   1.109871   0.000000
     4  H    2.036311   1.109871   1.900901   0.000000
 Stoichiometry    CH2O
 Framework group  C2V[C2(CO),SGV(H2)]
 Deg. of freedom     3
 Full point group                 C2V     NOp   4
 Largest Abelian subgroup         C2V     NOp   4
 Largest concise Abelian subgroup C2      NOp   2
                         Standard orientation:                         
 ---------------------------------------------------------------------
 Center     Atomic      Atomic             Coordinates (Angstroms)
 Number     Number       Type             X           Y           Z
 ---------------------------------------------------------------------
      1          8           0        0.000000    0.000000    0.685528
      2          6           0       -0.000000    0.000000   -0.542250
      3          1           0       -0.000000    0.950450   -1.115362
      4          1           0       -0.000000   -0.950450   -1.115362
 ---------------------------------------------------------------------
 Rotational constants (GHZ):    159.4282602     30.8115206     25.8212404
 Standard basis: Aug-CC-pVDZ (5D, 7F)
 There are    33 symmetry adapted cartesian basis functions of A1  symmetry.
 There are     6 symmetry adapted cartesian basis functions of A2  symmetry.
 There are    12 symmetry adapted cartesian basis functions of B1  symmetry.
 There are    17 symmetry adapted cartesian basis functions of B2  symmetry.
 There are    29 symmetry adapted basis functions of A1  symmetry.
 There are     6 symmetry adapted basis functions of A2  symmetry.
 There are    12 symmetry adapted basis functions of B1  symmetry.
 There are    17 symmetry adapted basis functions of B2  symmetry.
    64 basis functions,   108 primitive gaussians,    68 cartesian basis functions
     8 alpha electrons        8 beta electrons
       nuclear repulsion energy        30.8460024022 Hartrees.
 NAtoms=    4 NActive=    4 NUniq=    3 SFac= 1.78D+00 NAtFMM=   60 NAOKFM=F Big=F
 Integral buffers will be    131072 words long.
 Raffenetti 1 integral format.
 Two-electron integral symmetry is turned on.
 One-electron integrals computed using PRISM.
 NBasis=    64 RedAO= T EigKep=  9.08D-04  NBF=    29     6    12    17
 NBsUse=    64 1.00D-06 EigRej= -1.00D+00 NBFU=    29     6    12    17
 Initial guess from the checkpoint file:  "OCHT_freq.chk"
 B after Tr=    -0.000000    0.000000    0.000000
         Rot=    1.000000    0.000000    0.000000   -0.000000 Ang=   0.00 deg.
 Initial guess orbital symmetries:
       Occupied  (A1) (A1) (A1) (A1) (B2) (A1) (B1) (B2)
       Virtual   (A1) (A1) (A1) (A1) (A1) (A1) (A1) (A1) (A1) (A1)
                 (A1) (A1) (A1) (A1) (A1) (A1) (A1) (A1) (A1) (A1)
                 (A1) (A1) (A1) (A1) (A2) (A2) (A2) (A2) (A2) (A2)
                 (B1) (B1) (B1) (B1) (B1) (B1) (B1) (B1) (B1) (B1)
                 (B1) (B2) (B2) (B2) (B2) (B2) (B2) (B2) (B2) (B2)
                 (B2) (B2) (B2) (B2) (B2) (B2)
 ExpMin= 2.97D-02 ExpMax= 1.17D+04 ExpMxC= 4.01D+02 IAcc=3 IRadAn=         5 AccDes= 0.00D+00
 Harris functional with IExCor=  205 and IRadAn=       5 diagonalized for initial guess.
 HarFok:  IExCor=  205 AccDes= 0.00D+00 IRadAn=         5 IDoV= 1 UseB2=F ITyADJ=14
 ICtDFT=  3500011 ScaDFX=  1.000000  1.000000  1.000000  1.000000
 FoFCou: FMM=F IPFlag=           0 FMFlag=      100000 FMFlg1=           0
         NFxFlg=           0 DoJE=T BraDBF=F KetDBF=T FulRan=T
         wScrn=  0.000000 ICntrl=     500 IOpCl=  0 I1Cent=   200000004 NGrid=           0
         NMat0=    1 NMatS0=      1 NMatT0=    0 NMatD0=    1 NMtDS0=    0 NMtDT0=    0
 Petite list used in FoFCou.
 Keep R1 ints in memory in symmetry-blocked form, NReq=3059310.
 Requested convergence on RMS density matrix=1.00D-08 within 128 cycles.
 Requested convergence on MAX density matrix=1.00D-06.
 Requested convergence on             energy=1.00D-06.
 No special actions if energy rises.
 SCF Done:  E(RHF) =  -113.882678221     A.U. after   10 cycles
            NFock= 10  Conv=0.36D-08     -V/T= 2.0028
 ExpMin= 2.97D-02 ExpMax= 1.17D+04 ExpMxC= 4.01D+02 IAcc=3 IRadAn=         5 AccDes= 0.00D+00
 HarFok:  IExCor=  205 AccDes= 0.00D+00 IRadAn=         5 IDoV=-2 UseB2=F ITyADJ=14
 ICtDFT= 12500011 ScaDFX=  1.000000  1.000000  1.000000  1.000000
 Range of M.O.s used for correlation:     3    64
 NBasis=    64 NAE=     8 NBE=     8 NFC=     2 NFV=     0
 NROrb=     62 NOA=     6 NOB=     6 NVA=    56 NVB=    56

 **** Warning!!: The largest alpha MO coefficient is  0.11357749D+02

 Fully direct method using O(ONN) memory.
 JobTyp=1 Pass  1:  I=   3 to   8 NPSUse= 10 ParTrn=T ParDer=T DoDerP=T.
 Spin components of T(2) and E(2):
     alpha-alpha T2 =       0.1339852356D-01 E2=     -0.4192402598D-01
     alpha-beta  T2 =       0.8112370306D-01 E2=     -0.2523007635D+00
     beta-beta   T2 =       0.1339852356D-01 E2=     -0.4192402598D-01
 ANorm=    0.1052578144D+01
 E2 =    -0.3361488154D+00 EUMP2 =    -0.11421882703668D+03
          IDoAtm=1111
          Differentiating once with respect to electric field.
                with respect to dipole field.
          Differentiating once with respect to nuclear coordinates.
 Keep R1 ints in memory in symmetry-blocked form, NReq=3037835.
          There are     1 degrees of freedom in the 1st order CPHF.  IDoFFX=0 NUNeed=     1.
 LinEq1:  Iter=  0 NonCon=     1 RMS=8.53D-03 Max=7.97D-02 NDo=     1
 AX will form     1 AO Fock derivatives at one time.
 LinEq1:  Iter=  1 NonCon=     1 RMS=2.76D-03 Max=1.87D-02 NDo=     1
 LinEq1:  Iter=  2 NonCon=     1 RMS=8.23D-04 Max=6.84D-03 NDo=     1
 LinEq1:  Iter=  3 NonCon=     1 RMS=2.38D-04 Max=1.88D-03 NDo=     1
 LinEq1:  Iter=  4 NonCon=     1 RMS=6.13D-05 Max=4.31D-04 NDo=     1
 LinEq1:  Iter=  5 NonCon=     1 RMS=1.47D-05 Max=1.08D-04 NDo=     1
 LinEq1:  Iter=  6 NonCon=     1 RMS=2.92D-06 Max=2.13D-05 NDo=     1
 LinEq1:  Iter=  7 NonCon=     1 RMS=4.09D-07 Max=2.86D-06 NDo=     1
 LinEq1:  Iter=  8 NonCon=     1 RMS=4.41D-08 Max=2.22D-07 NDo=     1
 LinEq1:  Iter=  9 NonCon=     1 RMS=4.79D-09 Max=3.18D-08 NDo=     1
 LinEq1:  Iter= 10 NonCon=     1 RMS=4.25D-10 Max=2.28D-09 NDo=     1
 LinEq1:  Iter= 11 NonCon=     0 RMS=3.53D-11 Max=1.76D-10 NDo=     1
 Linear equations converged to 1.000D-10 1.000D-09 after    11 iterations.
 End of Minotr F.D. properties file   721 does not exist.
 End of Minotr F.D. properties file   722 does not exist.
 End of Minotr F.D. properties file   788 does not exist.
 Calling FoFJK, ICntrl=  10002127 FMM=F ISym2X=1 I1Cent= 0 IOpClX= 0 NMat=1 NMatS=1 NMatT=0.
 ***** Axes restored to original set *****
 -------------------------------------------------------------------
 Center     Atomic                   Forces (Hartrees/Bohr)
 Number     Number              X              Y              Z
 -------------------------------------------------------------------
      1        8           0.000000000   -0.000000000    0.004661061
      2        6           0.000000000   -0.000000000   -0.007781005
      3        1          -0.000340965    0.000000000    0.001559972
      4        1           0.000340965    0.000000000    0.001559972
 -------------------------------------------------------------------
 Cartesian Forces:  Max     0.007781005 RMS     0.002698287

 GradGradGradGradGradGradGradGradGradGradGradGradGradGradGradGradGradGrad
 Berny optimization.
 Using GEDIIS/GDIIS optimizer.
 FormGI is forming the generalized inverse of G from B-inverse, IUseBI=4.
 Internal  Forces:  Max     0.004661061 RMS     0.002033890
 Search for a local minimum.
 Step number   2 out of a maximum of   20
 All quantities printed in internal units (Hartrees-Bohrs-Radians)
 Mixed Optimization -- RFO/linear search
 Update second derivatives using D2CorX and points    1    2
 DE= -2.41D-03 DEPred=-2.46D-03 R= 9.79D-01
 TightC=F SS=  1.41D+00  RLast= 1.17D-01 DXNew= 5.0454D-01 3.5165D-01
 Trust test= 9.79D-01 RLast= 1.17D-01 DXMaxT set to 3.52D-01
 The second derivative matrix:
                          R1        R2        R3        A1        A2
           R1           0.98726
           R2           0.02865   0.37274
           R3           0.02865   0.00043   0.37274
           A1          -0.00066  -0.00556  -0.00556   0.15898
           A2          -0.00066  -0.00556  -0.00556  -0.00102   0.15898
           A3           0.00133   0.01113   0.01113   0.00204   0.00204
           D1           0.00000   0.00000   0.00000   0.00000   0.00000
                          A3        D1
           A3           0.15591
           D1          -0.00000   0.00499
 ITU=  1  0
 Use linear search instead of GDIIS.
     Eigenvalues ---    0.00499   0.15219   0.16000   0.37219   0.37230
     Eigenvalues ---    0.98993
 RFO step:  Lambda=-6.75038593D-05 EMin= 4.99391718D-03
 Quartic linear search produced a step of  0.03070.
 Iteration  1 RMS(Cart)=  0.00550979 RMS(Int)=  0.00003000
 Iteration  2 RMS(Cart)=  0.00003021 RMS(Int)=  0.00000000
 Iteration  3 RMS(Cart)=  0.00000000 RMS(Int)=  0.00000000
 ClnCor:  largest displacement from symmetrization is 2.69D-11 for atom     2.
 Variable       Old X    -DE/DX   Delta X   Delta X   Delta X     New X
                                 (Linear)    (Quad)   (Total)
    R1        2.32016  -0.00466   0.00045  -0.00528  -0.00483   2.31534
    R2        2.09735   0.00051   0.00231   0.00030   0.00261   2.09997
    R3        2.09735   0.00051   0.00231   0.00030   0.00261   2.09997
    A1        2.11341   0.00106   0.00058   0.00659   0.00717   2.12058
    A2        2.11341   0.00106   0.00058   0.00659   0.00717   2.12058
    A3        2.05636  -0.00211  -0.00117  -0.01318  -0.01435   2.04202
    D1        3.14159   0.00000   0.00000   0.00000   0.00000   3.14159
         Item               Value     Threshold  Converged?
 Maximum Force            0.004661     0.000002     NO 
 RMS     Force            0.002034     0.000001     NO 
 Maximum Displacement     0.008317     0.000006     NO 
 RMS     Displacement     0.005522     0.000004     NO 
 Predicted change in Energy=-3.471158D-05
 GradGradGradGradGradGradGradGradGradGradGradGradGradGradGradGradGradGrad

                          Input orientation:                          
 ---------------------------------------------------------------------
 Center     Atomic      Atomic             Coordinates (Angstroms)
 Number     Number       Type             X           Y           Z
 ---------------------------------------------------------------------
      1          8           0        0.000000   -0.000000   -0.026736
      2          6           0       -0.000000    0.000000    1.198487
      3          1           0        0.947494    0.000000    1.779125
      4          1           0       -0.947494   -0.000000    1.779125
 ---------------------------------------------------------------------
                    Distance matrix (angstroms):
                    1          2          3          4
     1  O    0.000000
     2  C    1.225224   0.000000
     3  H    2.039333   1.111254   0.000000
     4  H    2.039333   1.111254   1.894989   0.000000
 Stoichiometry    CH2O
 Framework group  C2V[C2(CO),SGV(H2)]
 Deg. of freedom     3
 Full point group                 C2V     NOp   4
 Largest Abelian subgroup         C2V     NOp   4
 Largest concise Abelian subgroup C2      NOp   2
                         Standard orientation:                         
 ---------------------------------------------------------------------
 Center     Atomic      Atomic             Coordinates (Angstroms)
 Number     Number       Type             X           Y           Z
 ---------------------------------------------------------------------
      1          8           0       -0.000000    0.000000    0.685192
      2          6           0        0.000000   -0.000000   -0.540032
      3          1           0        0.000000    0.947494   -1.120670
      4          1           0       -0.000000   -0.947494   -1.120670
 ---------------------------------------------------------------------
 Rotational constants (GHZ):    160.5474861     30.7893673     25.8348323
 Standard basis: Aug-CC-pVDZ (5D, 7F)
 There are    33 symmetry adapted cartesian basis functions of A1  symmetry.
 There are     6 symmetry adapted cartesian basis functions of A2  symmetry.
 There are    12 symmetry adapted cartesian basis functions of B1  symmetry.
 There are    17 symmetry adapted cartesian basis functions of B2  symmetry.
 There are    29 symmetry adapted basis functions of A1  symmetry.
 There are     6 symmetry adapted basis functions of A2  symmetry.
 There are    12 symmetry adapted basis functions of B1  symmetry.
 There are    17 symmetry adapted basis functions of B2  symmetry.
    64 basis functions,   108 primitive gaussians,    68 cartesian basis functions
     8 alpha electrons        8 beta electrons
       nuclear repulsion energy        30.8767182313 Hartrees.
 NAtoms=    4 NActive=    4 NUniq=    3 SFac= 1.78D+00 NAtFMM=   60 NAOKFM=F Big=F
 Integral buffers will be    131072 words long.
 Raffenetti 1 integral format.
 Two-electron integral symmetry is turned on.
 One-electron integrals computed using PRISM.
 NBasis=    64 RedAO= T EigKep=  9.09D-04  NBF=    29     6    12    17
 NBsUse=    64 1.00D-06 EigRej= -1.00D+00 NBFU=    29     6    12    17
 Initial guess from the checkpoint file:  "OCHT_freq.chk"
 B after Tr=     0.000000    0.000000    0.000000
         Rot=    1.000000   -0.000000    0.000000    0.000000 Ang=   0.00 deg.
 Initial guess orbital symmetries:
       Occupied  (A1) (A1) (A1) (A1) (B2) (A1) (B1) (B2)
       Virtual   (A1) (A1) (A1) (A1) (A1) (A1) (A1) (A1) (A1) (A1)
                 (A1) (A1) (A1) (A1) (A1) (A1) (A1) (A1) (A1) (A1)
                 (A1) (A1) (A1) (A1) (A2) (A2) (A2) (A2) (A2) (A2)
                 (B1) (B1) (B1) (B1) (B1) (B1) (B1) (B1) (B1) (B1)
                 (B1) (B2) (B2) (B2) (B2) (B2) (B2) (B2) (B2) (B2)
                 (B2) (B2) (B2) (B2) (B2) (B2)
 Keep R1 ints in memory in symmetry-blocked form, NReq=3059310.
 Requested convergence on RMS density matrix=1.00D-08 within 128 cycles.
 Requested convergence on MAX density matrix=1.00D-06.
 Requested convergence on             energy=1.00D-06.
 No special actions if energy rises.
 SCF Done:  E(RHF) =  -113.882968964     A.U. after    9 cycles
            NFock=  9  Conv=0.55D-08     -V/T= 2.0028
 ExpMin= 2.97D-02 ExpMax= 1.17D+04 ExpMxC= 4.01D+02 IAcc=3 IRadAn=         5 AccDes= 0.00D+00
 HarFok:  IExCor=  205 AccDes= 0.00D+00 IRadAn=         5 IDoV=-2 UseB2=F ITyADJ=14
 ICtDFT= 12500011 ScaDFX=  1.000000  1.000000  1.000000  1.000000
 Range of M.O.s used for correlation:     3    64
 NBasis=    64 NAE=     8 NBE=     8 NFC=     2 NFV=     0
 NROrb=     62 NOA=     6 NOB=     6 NVA=    56 NVB=    56

 **** Warning!!: The largest alpha MO coefficient is  0.11322995D+02

 Fully direct method using O(ONN) memory.
 JobTyp=1 Pass  1:  I=   3 to   8 NPSUse= 10 ParTrn=T ParDer=T DoDerP=T.
 Spin components of T(2) and E(2):
     alpha-alpha T2 =       0.1336935257D-01 E2=     -0.4188892479D-01
     alpha-beta  T2 =       0.8096479166D-01 E2=     -0.2521258416D+00
     beta-beta   T2 =       0.1336935257D-01 E2=     -0.4188892479D-01
 ANorm=    0.1052474939D+01
 E2 =    -0.3359036912D+00 EUMP2 =    -0.11421887265509D+03
          IDoAtm=1111
          Differentiating once with respect to electric field.
                with respect to dipole field.
          Differentiating once with respect to nuclear coordinates.
 Keep R1 ints in memory in symmetry-blocked form, NReq=3037835.
          There are     1 degrees of freedom in the 1st order CPHF.  IDoFFX=0 NUNeed=     1.
 LinEq1:  Iter=  0 NonCon=     1 RMS=8.50D-03 Max=7.94D-02 NDo=     1
 AX will form     1 AO Fock derivatives at one time.
 LinEq1:  Iter=  1 NonCon=     1 RMS=2.75D-03 Max=1.86D-02 NDo=     1
 LinEq1:  Iter=  2 NonCon=     1 RMS=8.17D-04 Max=6.76D-03 NDo=     1
 LinEq1:  Iter=  3 NonCon=     1 RMS=2.35D-04 Max=1.84D-03 NDo=     1
 LinEq1:  Iter=  4 NonCon=     1 RMS=6.00D-05 Max=4.23D-04 NDo=     1
 LinEq1:  Iter=  5 NonCon=     1 RMS=1.42D-05 Max=1.05D-04 NDo=     1
 LinEq1:  Iter=  6 NonCon=     1 RMS=2.87D-06 Max=2.10D-05 NDo=     1
 LinEq1:  Iter=  7 NonCon=     1 RMS=4.03D-07 Max=2.85D-06 NDo=     1
 LinEq1:  Iter=  8 NonCon=     1 RMS=4.35D-08 Max=2.19D-07 NDo=     1
 LinEq1:  Iter=  9 NonCon=     1 RMS=4.71D-09 Max=3.16D-08 NDo=     1
 LinEq1:  Iter= 10 NonCon=     1 RMS=4.20D-10 Max=2.25D-09 NDo=     1
 LinEq1:  Iter= 11 NonCon=     0 RMS=3.50D-11 Max=1.70D-10 NDo=     1
 Linear equations converged to 1.000D-10 1.000D-09 after    11 iterations.
 End of Minotr F.D. properties file   721 does not exist.
 End of Minotr F.D. properties file   722 does not exist.
 End of Minotr F.D. properties file   788 does not exist.
 Calling FoFJK, ICntrl=  10002127 FMM=F ISym2X=1 I1Cent= 0 IOpClX= 0 NMat=1 NMatS=1 NMatT=0.
 ***** Axes restored to original set *****
 -------------------------------------------------------------------
 Center     Atomic                   Forces (Hartrees/Bohr)
 Number     Number              X              Y              Z
 -------------------------------------------------------------------
      1        8          -0.000000000   -0.000000000    0.001924219
      2        6           0.000000000   -0.000000000   -0.002552866
      3        1          -0.000198118    0.000000000    0.000314324
      4        1           0.000198118    0.000000000    0.000314324
 -------------------------------------------------------------------
 Cartesian Forces:  Max     0.002552866 RMS     0.000935229

 GradGradGradGradGradGradGradGradGradGradGradGradGradGradGradGradGradGrad
 Berny optimization.
 Using GEDIIS/GDIIS optimizer.
 FormGI is forming the generalized inverse of G from B-inverse, IUseBI=4.
 Internal  Forces:  Max     0.001924219 RMS     0.000766108
 Search for a local minimum.
 Step number   3 out of a maximum of   20
 All quantities printed in internal units (Hartrees-Bohrs-Radians)
 Mixed Optimization -- En-DIIS/RFO-DIIS
 Update second derivatives using D2CorX and points    1    2    3
 DE= -4.56D-05 DEPred=-3.47D-05 R= 1.31D+00
 TightC=F SS=  1.41D+00  RLast= 1.86D-02 DXNew= 5.9140D-01 5.5775D-02
 Trust test= 1.31D+00 RLast= 1.86D-02 DXMaxT set to 3.52D-01
 The second derivative matrix:
                          R1        R2        R3        A1        A2
           R1           0.84325
           R2           0.04321   0.37509
           R3           0.04321   0.00279   0.37509
           A1           0.02574  -0.00606  -0.00606   0.15547
           A2           0.02574  -0.00606  -0.00606  -0.00453   0.15547
           A3          -0.05148   0.01212   0.01212   0.00905   0.00905
           D1          -0.00000   0.00000   0.00000   0.00000   0.00000
                          A3        D1
           A3           0.14190
           D1          -0.00000   0.00499
 ITU=  1  1  0
 Use linear search instead of GDIIS.
     Eigenvalues ---    0.00499   0.12452   0.16000   0.37230   0.37336
     Eigenvalues ---    0.85610
 RFO step:  Lambda=-1.05875309D-06 EMin= 4.99391718D-03
 Quartic linear search produced a step of  0.40373.
 Iteration  1 RMS(Cart)=  0.00192944 RMS(Int)=  0.00000362
 Iteration  2 RMS(Cart)=  0.00000354 RMS(Int)=  0.00000000
 Iteration  3 RMS(Cart)=  0.00000000 RMS(Int)=  0.00000000
 ClnCor:  largest displacement from symmetrization is 2.88D-11 for atom     2.
 Variable       Old X    -DE/DX   Delta X   Delta X   Delta X     New X
                                 (Linear)    (Quad)   (Total)
    R1        2.31534  -0.00192  -0.00195  -0.00085  -0.00280   2.31254
    R2        2.09997  -0.00000   0.00106  -0.00051   0.00055   2.10051
    R3        2.09997  -0.00000   0.00106  -0.00051   0.00055   2.10051
    A1        2.12058   0.00026   0.00290  -0.00037   0.00252   2.12311
    A2        2.12058   0.00026   0.00290  -0.00037   0.00252   2.12311
    A3        2.04202  -0.00052  -0.00579   0.00075  -0.00504   2.03697
    D1        3.14159   0.00000   0.00000   0.00000   0.00000   3.14159
         Item               Value     Threshold  Converged?
 Maximum Force            0.001924     0.000002     NO 
 RMS     Force            0.000766     0.000001     NO 
 Maximum Displacement     0.003098     0.000006     NO 
 RMS     Displacement     0.001931     0.000004     NO 
 Predicted change in Energy=-4.687510D-06
 GradGradGradGradGradGradGradGradGradGradGradGradGradGradGradGradGradGrad

                          Input orientation:                          
 ---------------------------------------------------------------------
 Center     Atomic      Atomic             Coordinates (Angstroms)
 Number     Number       Type             X           Y           Z
 ---------------------------------------------------------------------
      1          8           0        0.000000   -0.000000   -0.026896
      2          6           0       -0.000000    0.000000    1.196848
      3          1           0        0.946274    0.000000    1.780024
      4          1           0       -0.946274   -0.000000    1.780024
 ---------------------------------------------------------------------
                    Distance matrix (angstroms):
                    1          2          3          4
     1  O    0.000000
     2  C    1.223744   0.000000
     3  H    2.039704   1.111543   0.000000
     4  H    2.039704   1.111543   1.892548   0.000000
 Stoichiometry    CH2O
 Framework group  C2V[C2(CO),SGV(H2)]
 Deg. of freedom     3
 Full point group                 C2V     NOp   4
 Largest Abelian subgroup         C2V     NOp   4
 Largest concise Abelian subgroup C2      NOp   2
                         Standard orientation:                         
 ---------------------------------------------------------------------
 Center     Atomic      Atomic             Coordinates (Angstroms)
 Number     Number       Type             X           Y           Z
 ---------------------------------------------------------------------
      1          8           0        0.000000    0.000000    0.684769
      2          6           0       -0.000000   -0.000000   -0.538975
      3          1           0        0.000000    0.946274   -1.122151
      4          1           0       -0.000000   -0.946274   -1.122151
 ---------------------------------------------------------------------
 Rotational constants (GHZ):    161.0102571     30.8072841     25.8594115
 Standard basis: Aug-CC-pVDZ (5D, 7F)
 There are    33 symmetry adapted cartesian basis functions of A1  symmetry.
 There are     6 symmetry adapted cartesian basis functions of A2  symmetry.
 There are    12 symmetry adapted cartesian basis functions of B1  symmetry.
 There are    17 symmetry adapted cartesian basis functions of B2  symmetry.
 There are    29 symmetry adapted basis functions of A1  symmetry.
 There are     6 symmetry adapted basis functions of A2  symmetry.
 There are    12 symmetry adapted basis functions of B1  symmetry.
 There are    17 symmetry adapted basis functions of B2  symmetry.
    64 basis functions,   108 primitive gaussians,    68 cartesian basis functions
     8 alpha electrons        8 beta electrons
       nuclear repulsion energy        30.8999077742 Hartrees.
 NAtoms=    4 NActive=    4 NUniq=    3 SFac= 1.78D+00 NAtFMM=   60 NAOKFM=F Big=F
 Integral buffers will be    131072 words long.
 Raffenetti 1 integral format.
 Two-electron integral symmetry is turned on.
 One-electron integrals computed using PRISM.
 NBasis=    64 RedAO= T EigKep=  9.08D-04  NBF=    29     6    12    17
 NBsUse=    64 1.00D-06 EigRej= -1.00D+00 NBFU=    29     6    12    17
 Initial guess from the checkpoint file:  "OCHT_freq.chk"
 B after Tr=     0.000000    0.000000   -0.000000
         Rot=    1.000000   -0.000000   -0.000000    0.000000 Ang=   0.00 deg.
 Initial guess orbital symmetries:
       Occupied  (A1) (A1) (A1) (A1) (B2) (A1) (B1) (B2)
       Virtual   (A1) (A1) (A1) (A1) (A1) (A1) (A1) (A1) (A1) (A1)
                 (A1) (A1) (A1) (A1) (A1) (A1) (A1) (A1) (A1) (A1)
                 (A1) (A1) (A1) (A1) (A2) (A2) (A2) (A2) (A2) (A2)
                 (B1) (B1) (B1) (B1) (B1) (B1) (B1) (B1) (B1) (B1)
                 (B1) (B2) (B2) (B2) (B2) (B2) (B2) (B2) (B2) (B2)
                 (B2) (B2) (B2) (B2) (B2) (B2)
 Keep R1 ints in memory in symmetry-blocked form, NReq=3059310.
 Requested convergence on RMS density matrix=1.00D-08 within 128 cycles.
 Requested convergence on MAX density matrix=1.00D-06.
 Requested convergence on             energy=1.00D-06.
 No special actions if energy rises.
 SCF Done:  E(RHF) =  -113.883142724     A.U. after    9 cycles
            NFock=  9  Conv=0.29D-08     -V/T= 2.0027
 ExpMin= 2.97D-02 ExpMax= 1.17D+04 ExpMxC= 4.01D+02 IAcc=3 IRadAn=         5 AccDes= 0.00D+00
 HarFok:  IExCor=  205 AccDes= 0.00D+00 IRadAn=         5 IDoV=-2 UseB2=F ITyADJ=14
 ICtDFT= 12500011 ScaDFX=  1.000000  1.000000  1.000000  1.000000
 Range of M.O.s used for correlation:     3    64
 NBasis=    64 NAE=     8 NBE=     8 NFC=     2 NFV=     0
 NROrb=     62 NOA=     6 NOB=     6 NVA=    56 NVB=    56

 **** Warning!!: The largest alpha MO coefficient is  0.11314001D+02

 Fully direct method using O(ONN) memory.
 JobTyp=1 Pass  1:  I=   3 to   8 NPSUse= 10 ParTrn=T ParDer=T DoDerP=T.
 Spin components of T(2) and E(2):
     alpha-alpha T2 =       0.1334979378D-01 E2=     -0.4186582720D-01
     alpha-beta  T2 =       0.8085446224D-01 E2=     -0.2520029693D+00
     beta-beta   T2 =       0.1334979378D-01 E2=     -0.4186582720D-01
 ANorm=    0.1052403939D+01
 E2 =    -0.3357346237D+00 EUMP2 =    -0.11421887734817D+03
          IDoAtm=1111
          Differentiating once with respect to electric field.
                with respect to dipole field.
          Differentiating once with respect to nuclear coordinates.
 Keep R1 ints in memory in symmetry-blocked form, NReq=3037835.
          There are     1 degrees of freedom in the 1st order CPHF.  IDoFFX=0 NUNeed=     1.
 LinEq1:  Iter=  0 NonCon=     1 RMS=8.48D-03 Max=7.92D-02 NDo=     1
 AX will form     1 AO Fock derivatives at one time.
 LinEq1:  Iter=  1 NonCon=     1 RMS=2.74D-03 Max=1.85D-02 NDo=     1
 LinEq1:  Iter=  2 NonCon=     1 RMS=8.12D-04 Max=6.71D-03 NDo=     1
 LinEq1:  Iter=  3 NonCon=     1 RMS=2.33D-04 Max=1.81D-03 NDo=     1
 LinEq1:  Iter=  4 NonCon=     1 RMS=5.92D-05 Max=4.18D-04 NDo=     1
 LinEq1:  Iter=  5 NonCon=     1 RMS=1.39D-05 Max=1.03D-04 NDo=     1
 LinEq1:  Iter=  6 NonCon=     1 RMS=2.83D-06 Max=2.09D-05 NDo=     1
 LinEq1:  Iter=  7 NonCon=     1 RMS=3.99D-07 Max=2.83D-06 NDo=     1
 LinEq1:  Iter=  8 NonCon=     1 RMS=4.31D-08 Max=2.17D-07 NDo=     1
 LinEq1:  Iter=  9 NonCon=     1 RMS=4.67D-09 Max=3.13D-08 NDo=     1
 LinEq1:  Iter= 10 NonCon=     1 RMS=4.16D-10 Max=2.24D-09 NDo=     1
 LinEq1:  Iter= 11 NonCon=     0 RMS=3.48D-11 Max=1.67D-10 NDo=     1
 Linear equations converged to 1.000D-10 1.000D-09 after    11 iterations.
 End of Minotr F.D. properties file   721 does not exist.
 End of Minotr F.D. properties file   722 does not exist.
 End of Minotr F.D. properties file   788 does not exist.
 Calling FoFJK, ICntrl=  10002127 FMM=F ISym2X=1 I1Cent= 0 IOpClX= 0 NMat=1 NMatS=1 NMatT=0.
 ***** Axes restored to original set *****
 -------------------------------------------------------------------
 Center     Atomic                   Forces (Hartrees/Bohr)
 Number     Number              X              Y              Z
 -------------------------------------------------------------------
      1        8           0.000000000   -0.000000000    0.000055919
      2        6           0.000000000   -0.000000000   -0.000016875
      3        1          -0.000020566    0.000000000   -0.000019522
      4        1           0.000020566    0.000000000   -0.000019522
 -------------------------------------------------------------------
 Cartesian Forces:  Max     0.000055919 RMS     0.000020453

 GradGradGradGradGradGradGradGradGradGradGradGradGradGradGradGradGradGrad
 Berny optimization.
 Using GEDIIS/GDIIS optimizer.
 FormGI is forming the generalized inverse of G from B-inverse, IUseBI=4.
 Internal  Forces:  Max     0.000055919 RMS     0.000026096
 Search for a local minimum.
 Step number   4 out of a maximum of   20
 All quantities printed in internal units (Hartrees-Bohrs-Radians)
 Mixed Optimization -- En-DIIS/RFO-DIIS
 Swapping is turned off.
 Update second derivatives using D2CorX and points    1    2    3    4
 DE= -4.69D-06 DEPred=-4.69D-06 R= 1.00D+00
 TightC=F SS=  1.41D+00  RLast= 6.82D-03 DXNew= 5.9140D-01 2.0468D-02
 Trust test= 1.00D+00 RLast= 6.82D-03 DXMaxT set to 3.52D-01
 The second derivative matrix:
                          R1        R2        R3        A1        A2
           R1           0.81297
           R2           0.02942   0.37103
           R3           0.02942  -0.00128   0.37103
           A1           0.02467  -0.00639  -0.00639   0.15582
           A2           0.02467  -0.00639  -0.00639  -0.00418   0.15582
           A3          -0.04933   0.01278   0.01278   0.00836   0.00836
           D1          -0.00000   0.00000   0.00000   0.00000   0.00000
                          A3        D1
           A3           0.14327
           D1          -0.00000   0.00499
 ITU=  1  1  1  0
     Eigenvalues ---    0.00499   0.12682   0.16000   0.36904   0.37230
     Eigenvalues ---    0.82177
 En-DIIS/RFO-DIIS IScMMF=        0 using points:     4    3
 RFO step:  Lambda= 0.00000000D+00.
 DidBck=F Rises=F RFO-DIIS coefs:    1.00696   -0.00696
 Iteration  1 RMS(Cart)=  0.00004948 RMS(Int)=  0.00000000
 Iteration  2 RMS(Cart)=  0.00000000 RMS(Int)=  0.00000000
 ClnCor:  largest displacement from symmetrization is 9.09D-14 for atom     2.
 Variable       Old X    -DE/DX   Delta X   Delta X   Delta X     New X
                                 (Linear)    (Quad)   (Total)
    R1        2.31254  -0.00006  -0.00002  -0.00004  -0.00006   2.31248
    R2        2.10051  -0.00003   0.00000  -0.00008  -0.00007   2.10044
    R3        2.10051  -0.00003   0.00000  -0.00008  -0.00007   2.10044
    A1        2.12311  -0.00000   0.00002  -0.00004  -0.00003   2.12308
    A2        2.12311  -0.00000   0.00002  -0.00004  -0.00003   2.12308
    A3        2.03697   0.00001  -0.00004   0.00009   0.00005   2.03703
    D1        3.14159   0.00000   0.00000   0.00000   0.00000   3.14159
         Item               Value     Threshold  Converged?
 Maximum Force            0.000056     0.000002     NO 
 RMS     Force            0.000026     0.000001     NO 
 Maximum Displacement     0.000087     0.000006     NO 
 RMS     Displacement     0.000049     0.000004     NO 
 Predicted change in Energy=-3.993845D-09
 GradGradGradGradGradGradGradGradGradGradGradGradGradGradGradGradGradGrad

                          Input orientation:                          
 ---------------------------------------------------------------------
 Center     Atomic      Atomic             Coordinates (Angstroms)
 Number     Number       Type             X           Y           Z
 ---------------------------------------------------------------------
      1          8           0       -0.000000   -0.000000   -0.026850
      2          6           0        0.000000    0.000000    1.196863
      3          1           0        0.946256    0.000000    1.779993
      4          1           0       -0.946256   -0.000000    1.779993
 ---------------------------------------------------------------------
                    Distance matrix (angstroms):
                    1          2          3          4
     1  O    0.000000
     2  C    1.223713   0.000000
     3  H    2.039628   1.111504   0.000000
     4  H    2.039628   1.111504   1.892513   0.000000
 Stoichiometry    CH2O
 Framework group  C2V[C2(CO),SGV(H2)]
 Deg. of freedom     3
 Full point group                 C2V     NOp   4
 Largest Abelian subgroup         C2V     NOp   4
 Largest concise Abelian subgroup C2      NOp   2
                         Standard orientation:                         
 ---------------------------------------------------------------------
 Center     Atomic      Atomic             Coordinates (Angstroms)
 Number     Number       Type             X           Y           Z
 ---------------------------------------------------------------------
      1          8           0        0.000000    0.000000    0.684748
      2          6           0       -0.000000    0.000000   -0.538965
      3          1           0        0.000000    0.946256   -1.122096
      4          1           0       -0.000000   -0.946256   -1.122096
 ---------------------------------------------------------------------
 Rotational constants (GHZ):    161.0158152     30.8093707     25.8610251
 Standard basis: Aug-CC-pVDZ (5D, 7F)
 There are    33 symmetry adapted cartesian basis functions of A1  symmetry.
 There are     6 symmetry adapted cartesian basis functions of A2  symmetry.
 There are    12 symmetry adapted cartesian basis functions of B1  symmetry.
 There are    17 symmetry adapted cartesian basis functions of B2  symmetry.
 There are    29 symmetry adapted basis functions of A1  symmetry.
 There are     6 symmetry adapted basis functions of A2  symmetry.
 There are    12 symmetry adapted basis functions of B1  symmetry.
 There are    17 symmetry adapted basis functions of B2  symmetry.
    64 basis functions,   108 primitive gaussians,    68 cartesian basis functions
     8 alpha electrons        8 beta electrons
       nuclear repulsion energy        30.9007927698 Hartrees.
 NAtoms=    4 NActive=    4 NUniq=    3 SFac= 1.78D+00 NAtFMM=   60 NAOKFM=F Big=F
 Integral buffers will be    131072 words long.
 Raffenetti 1 integral format.
 Two-electron integral symmetry is turned on.
 One-electron integrals computed using PRISM.
 NBasis=    64 RedAO= T EigKep=  9.08D-04  NBF=    29     6    12    17
 NBsUse=    64 1.00D-06 EigRej= -1.00D+00 NBFU=    29     6    12    17
 Initial guess from the checkpoint file:  "OCHT_freq.chk"
 B after Tr=     0.000000   -0.000000    0.000000
         Rot=    1.000000   -0.000000    0.000000   -0.000000 Ang=   0.00 deg.
 Initial guess orbital symmetries:
       Occupied  (A1) (A1) (A1) (A1) (B2) (A1) (B1) (B2)
       Virtual   (A1) (A1) (A1) (A1) (A1) (A1) (A1) (A1) (A1) (A1)
                 (A1) (A1) (A1) (A1) (A1) (A1) (A1) (A1) (A1) (A1)
                 (A1) (A1) (A1) (A1) (A2) (A2) (A2) (A2) (A2) (A2)
                 (B1) (B1) (B1) (B1) (B1) (B1) (B1) (B1) (B1) (B1)
                 (B1) (B2) (B2) (B2) (B2) (B2) (B2) (B2) (B2) (B2)
                 (B2) (B2) (B2) (B2) (B2) (B2)
 Keep R1 ints in memory in symmetry-blocked form, NReq=3059310.
 Requested convergence on RMS density matrix=1.00D-08 within 128 cycles.
 Requested convergence on MAX density matrix=1.00D-06.
 Requested convergence on             energy=1.00D-06.
 No special actions if energy rises.
 SCF Done:  E(RHF) =  -113.883148442     A.U. after    5 cycles
            NFock=  5  Conv=0.45D-08     -V/T= 2.0027
 ExpMin= 2.97D-02 ExpMax= 1.17D+04 ExpMxC= 4.01D+02 IAcc=3 IRadAn=         5 AccDes= 0.00D+00
 HarFok:  IExCor=  205 AccDes= 0.00D+00 IRadAn=         5 IDoV=-2 UseB2=F ITyADJ=14
 ICtDFT= 12500011 ScaDFX=  1.000000  1.000000  1.000000  1.000000
 Range of M.O.s used for correlation:     3    64
 NBasis=    64 NAE=     8 NBE=     8 NFC=     2 NFV=     0
 NROrb=     62 NOA=     6 NOB=     6 NVA=    56 NVB=    56

 **** Warning!!: The largest alpha MO coefficient is  0.11314628D+02

 Fully direct method using O(ONN) memory.
 JobTyp=1 Pass  1:  I=   3 to   8 NPSUse= 10 ParTrn=T ParDer=T DoDerP=T.
 Spin components of T(2) and E(2):
     alpha-alpha T2 =       0.1334917261D-01 E2=     -0.4186512063D-01
     alpha-beta  T2 =       0.8085057562D-01 E2=     -0.2519986645D+00
     beta-beta   T2 =       0.1334917261D-01 E2=     -0.4186512063D-01
 ANorm=    0.1052401502D+01
 E2 =    -0.3357289058D+00 EUMP2 =    -0.11421887734757D+03
          IDoAtm=1111
          Differentiating once with respect to electric field.
                with respect to dipole field.
          Differentiating once with respect to nuclear coordinates.
 Keep R1 ints in memory in symmetry-blocked form, NReq=3037835.
          There are     1 degrees of freedom in the 1st order CPHF.  IDoFFX=0 NUNeed=     1.
 LinEq1:  Iter=  0 NonCon=     1 RMS=8.48D-03 Max=7.92D-02 NDo=     1
 AX will form     1 AO Fock derivatives at one time.
 LinEq1:  Iter=  1 NonCon=     1 RMS=2.74D-03 Max=1.85D-02 NDo=     1
 LinEq1:  Iter=  2 NonCon=     1 RMS=8.12D-04 Max=6.71D-03 NDo=     1
 LinEq1:  Iter=  3 NonCon=     1 RMS=2.33D-04 Max=1.81D-03 NDo=     1
 LinEq1:  Iter=  4 NonCon=     1 RMS=5.91D-05 Max=4.18D-04 NDo=     1
 LinEq1:  Iter=  5 NonCon=     1 RMS=1.39D-05 Max=1.03D-04 NDo=     1
 LinEq1:  Iter=  6 NonCon=     1 RMS=2.83D-06 Max=2.09D-05 NDo=     1
 LinEq1:  Iter=  7 NonCon=     1 RMS=3.99D-07 Max=2.83D-06 NDo=     1
 LinEq1:  Iter=  8 NonCon=     1 RMS=4.31D-08 Max=2.17D-07 NDo=     1
 LinEq1:  Iter=  9 NonCon=     1 RMS=4.67D-09 Max=3.13D-08 NDo=     1
 LinEq1:  Iter= 10 NonCon=     1 RMS=4.16D-10 Max=2.24D-09 NDo=     1
 LinEq1:  Iter= 11 NonCon=     0 RMS=3.48D-11 Max=1.67D-10 NDo=     1
 Linear equations converged to 1.000D-10 1.000D-09 after    11 iterations.
 End of Minotr F.D. properties file   721 does not exist.
 End of Minotr F.D. properties file   722 does not exist.
 End of Minotr F.D. properties file   788 does not exist.
 Calling FoFJK, ICntrl=  10002127 FMM=F ISym2X=1 I1Cent= 0 IOpClX= 0 NMat=1 NMatS=1 NMatT=0.
 ***** Axes restored to original set *****
 -------------------------------------------------------------------
 Center     Atomic                   Forces (Hartrees/Bohr)
 Number     Number              X              Y              Z
 -------------------------------------------------------------------
      1        8          -0.000000000   -0.000000000    0.000001999
      2        6          -0.000000000   -0.000000000    0.000001361
      3        1          -0.000002162    0.000000000   -0.000001680
      4        1           0.000002162    0.000000000   -0.000001680
 -------------------------------------------------------------------
 Cartesian Forces:  Max     0.000002162 RMS     0.000001318

 GradGradGradGradGradGradGradGradGradGradGradGradGradGradGradGradGradGrad
 Berny optimization.
 Using GEDIIS/GDIIS optimizer.
 FormGI is forming the generalized inverse of G from B-inverse, IUseBI=4.
 Internal  Forces:  Max     0.000002722 RMS     0.000001651
 Search for a local minimum.
 Step number   5 out of a maximum of   20
 All quantities printed in internal units (Hartrees-Bohrs-Radians)
 Mixed Optimization -- En-DIIS/RFO-DIIS
 Swapping is turned off.
 Update second derivatives using D2CorX and points    1    2    3    4    5
 DE=  5.98D-10 DEPred=-3.99D-09 R=-1.50D-01
 Trust test=-1.50D-01 RLast= 1.35D-04 DXMaxT set to 1.76D-01
 The second derivative matrix:
                          R1        R2        R3        A1        A2
           R1           0.81380
           R2           0.01586   0.35912
           R3           0.01586  -0.01318   0.35912
           A1           0.02426  -0.00756  -0.00756   0.15574
           A2           0.02426  -0.00756  -0.00756  -0.00426   0.15574
           A3          -0.04851   0.01512   0.01512   0.00852   0.00852
           D1          -0.00000   0.00000   0.00000   0.00000   0.00000
                          A3        D1
           A3           0.14297
           D1          -0.00000   0.00499
 ITU= -1  1  1  1  0
     Eigenvalues ---    0.00499   0.12571   0.16000   0.34865   0.37230
     Eigenvalues ---    0.81981
 En-DIIS/RFO-DIIS IScMMF=        0 using points:     5    4    3
 RFO step:  Lambda= 0.00000000D+00.
 DidBck=F Rises=F RFO-DIIS coefs:    1.07890   -0.07950    0.00060
 Iteration  1 RMS(Cart)=  0.00000418 RMS(Int)=  0.00000000
 Iteration  2 RMS(Cart)=  0.00000000 RMS(Int)=  0.00000000
 ClnCor:  largest displacement from symmetrization is 9.06D-14 for atom     2.
 Variable       Old X    -DE/DX   Delta X   Delta X   Delta X     New X
                                 (Linear)    (Quad)   (Total)
    R1        2.31248  -0.00000  -0.00000   0.00000  -0.00000   2.31248
    R2        2.10044  -0.00000  -0.00001  -0.00000  -0.00001   2.10043
    R3        2.10044  -0.00000  -0.00001  -0.00000  -0.00001   2.10043
    A1        2.12308  -0.00000  -0.00000   0.00000  -0.00000   2.12308
    A2        2.12308  -0.00000  -0.00000   0.00000  -0.00000   2.12308
    A3        2.03703   0.00000   0.00001  -0.00000   0.00000   2.03703
    D1        3.14159   0.00000   0.00000   0.00000   0.00000   3.14159
         Item               Value     Threshold  Converged?
 Maximum Force            0.000003     0.000002     NO 
 RMS     Force            0.000002     0.000001     NO 
 Maximum Displacement     0.000005     0.000006     YES
 RMS     Displacement     0.000004     0.000004     NO 
 Predicted change in Energy=-2.504314D-11
 GradGradGradGradGradGradGradGradGradGradGradGradGradGradGradGradGradGrad

                          Input orientation:                          
 ---------------------------------------------------------------------
 Center     Atomic      Atomic             Coordinates (Angstroms)
 Number     Number       Type             X           Y           Z
 ---------------------------------------------------------------------
      1          8           0        0.000000   -0.000000   -0.026847
      2          6           0       -0.000000    0.000000    1.196865
      3          1           0        0.946254    0.000000    1.779991
      4          1           0       -0.946254   -0.000000    1.779991
 ---------------------------------------------------------------------
                    Distance matrix (angstroms):
                    1          2          3          4
     1  O    0.000000
     2  C    1.223712   0.000000
     3  H    2.039623   1.111500   0.000000
     4  H    2.039623   1.111500   1.892508   0.000000
 Stoichiometry    CH2O
 Framework group  C2V[C2(CO),SGV(H2)]
 Deg. of freedom     3
 Full point group                 C2V     NOp   4
 Largest Abelian subgroup         C2V     NOp   4
 Largest concise Abelian subgroup C2      NOp   2
                         Standard orientation:                         
 ---------------------------------------------------------------------
 Center     Atomic      Atomic             Coordinates (Angstroms)
 Number     Number       Type             X           Y           Z
 ---------------------------------------------------------------------
      1          8           0        0.000000    0.000000    0.684747
      2          6           0       -0.000000    0.000000   -0.538965
      3          1           0       -0.000000    0.946254   -1.122091
      4          1           0       -0.000000   -0.946254   -1.122091
 ---------------------------------------------------------------------
 Rotational constants (GHZ):    161.0165591     30.8094869     25.8611261
 Standard basis: Aug-CC-pVDZ (5D, 7F)
 There are    33 symmetry adapted cartesian basis functions of A1  symmetry.
 There are     6 symmetry adapted cartesian basis functions of A2  symmetry.
 There are    12 symmetry adapted cartesian basis functions of B1  symmetry.
 There are    17 symmetry adapted cartesian basis functions of B2  symmetry.
 There are    29 symmetry adapted basis functions of A1  symmetry.
 There are     6 symmetry adapted basis functions of A2  symmetry.
 There are    12 symmetry adapted basis functions of B1  symmetry.
 There are    17 symmetry adapted basis functions of B2  symmetry.
    64 basis functions,   108 primitive gaussians,    68 cartesian basis functions
     8 alpha electrons        8 beta electrons
       nuclear repulsion energy        30.9008427093 Hartrees.
 NAtoms=    4 NActive=    4 NUniq=    3 SFac= 1.78D+00 NAtFMM=   60 NAOKFM=F Big=F
 Integral buffers will be    131072 words long.
 Raffenetti 1 integral format.
 Two-electron integral symmetry is turned on.
 One-electron integrals computed using PRISM.
 NBasis=    64 RedAO= T EigKep=  9.08D-04  NBF=    29     6    12    17
 NBsUse=    64 1.00D-06 EigRej= -1.00D+00 NBFU=    29     6    12    17
 Initial guess from the checkpoint file:  "OCHT_freq.chk"
 B after Tr=     0.000000   -0.000000    0.000000
         Rot=    1.000000   -0.000000    0.000000   -0.000000 Ang=   0.00 deg.
 Initial guess orbital symmetries:
       Occupied  (A1) (A1) (A1) (A1) (B2) (A1) (B1) (B2)
       Virtual   (A1) (A1) (A1) (A1) (A1) (A1) (A1) (A1) (A1) (A1)
                 (A1) (A1) (A1) (A1) (A1) (A1) (A1) (A1) (A1) (A1)
                 (A1) (A1) (A1) (A1) (A2) (A2) (A2) (A2) (A2) (A2)
                 (B1) (B1) (B1) (B1) (B1) (B1) (B1) (B1) (B1) (B1)
                 (B1) (B2) (B2) (B2) (B2) (B2) (B2) (B2) (B2) (B2)
                 (B2) (B2) (B2) (B2) (B2) (B2)
 Keep R1 ints in memory in symmetry-blocked form, NReq=3059310.
 Requested convergence on RMS density matrix=1.00D-08 within 128 cycles.
 Requested convergence on MAX density matrix=1.00D-06.
 Requested convergence on             energy=1.00D-06.
 No special actions if energy rises.
 SCF Done:  E(RHF) =  -113.883148743     A.U. after    3 cycles
            NFock=  3  Conv=0.41D-08     -V/T= 2.0027
 ExpMin= 2.97D-02 ExpMax= 1.17D+04 ExpMxC= 4.01D+02 IAcc=3 IRadAn=         5 AccDes= 0.00D+00
 HarFok:  IExCor=  205 AccDes= 0.00D+00 IRadAn=         5 IDoV=-2 UseB2=F ITyADJ=14
 ICtDFT= 12500011 ScaDFX=  1.000000  1.000000  1.000000  1.000000
 Range of M.O.s used for correlation:     3    64
 NBasis=    64 NAE=     8 NBE=     8 NFC=     2 NFV=     0
 NROrb=     62 NOA=     6 NOB=     6 NVA=    56 NVB=    56

 **** Warning!!: The largest alpha MO coefficient is  0.11314694D+02

 Fully direct method using O(ONN) memory.
 JobTyp=1 Pass  1:  I=   3 to   8 NPSUse= 10 ParTrn=T ParDer=T DoDerP=T.
 Spin components of T(2) and E(2):
     alpha-alpha T2 =       0.1334914277D-01 E2=     -0.4186508828D-01
     alpha-beta  T2 =       0.8085036464D-01 E2=     -0.2519984389D+00
     beta-beta   T2 =       0.1334914277D-01 E2=     -0.4186508828D-01
 ANorm=    0.1052401373D+01
 E2 =    -0.3357286155D+00 EUMP2 =    -0.11421887735810D+03
          IDoAtm=1111
          Differentiating once with respect to electric field.
                with respect to dipole field.
          Differentiating once with respect to nuclear coordinates.
 Keep R1 ints in memory in symmetry-blocked form, NReq=3037835.
          There are     1 degrees of freedom in the 1st order CPHF.  IDoFFX=0 NUNeed=     1.
 LinEq1:  Iter=  0 NonCon=     1 RMS=8.48D-03 Max=7.92D-02 NDo=     1
 AX will form     1 AO Fock derivatives at one time.
 LinEq1:  Iter=  1 NonCon=     1 RMS=2.74D-03 Max=1.85D-02 NDo=     1
 LinEq1:  Iter=  2 NonCon=     1 RMS=8.12D-04 Max=6.71D-03 NDo=     1
 LinEq1:  Iter=  3 NonCon=     1 RMS=2.33D-04 Max=1.81D-03 NDo=     1
 LinEq1:  Iter=  4 NonCon=     1 RMS=5.91D-05 Max=4.18D-04 NDo=     1
 LinEq1:  Iter=  5 NonCon=     1 RMS=1.39D-05 Max=1.03D-04 NDo=     1
 LinEq1:  Iter=  6 NonCon=     1 RMS=2.83D-06 Max=2.09D-05 NDo=     1
 LinEq1:  Iter=  7 NonCon=     1 RMS=3.99D-07 Max=2.83D-06 NDo=     1
 LinEq1:  Iter=  8 NonCon=     1 RMS=4.31D-08 Max=2.17D-07 NDo=     1
 LinEq1:  Iter=  9 NonCon=     1 RMS=4.67D-09 Max=3.13D-08 NDo=     1
 LinEq1:  Iter= 10 NonCon=     1 RMS=4.16D-10 Max=2.24D-09 NDo=     1
 LinEq1:  Iter= 11 NonCon=     0 RMS=3.48D-11 Max=1.67D-10 NDo=     1
 Linear equations converged to 1.000D-10 1.000D-09 after    11 iterations.
 End of Minotr F.D. properties file   721 does not exist.
 End of Minotr F.D. properties file   722 does not exist.
 End of Minotr F.D. properties file   788 does not exist.
 Calling FoFJK, ICntrl=  10002127 FMM=F ISym2X=1 I1Cent= 0 IOpClX= 0 NMat=1 NMatS=1 NMatT=0.
 ***** Axes restored to original set *****
 -------------------------------------------------------------------
 Center     Atomic                   Forces (Hartrees/Bohr)
 Number     Number              X              Y              Z
 -------------------------------------------------------------------
      1        8           0.000000000   -0.000000000   -0.000000138
      2        6          -0.000000000   -0.000000000    0.000000140
      3        1          -0.000000079    0.000000000   -0.000000001
      4        1           0.000000079    0.000000000   -0.000000001
 -------------------------------------------------------------------
 Cartesian Forces:  Max     0.000000140 RMS     0.000000065

 GradGradGradGradGradGradGradGradGradGradGradGradGradGradGradGradGradGrad
 Berny optimization.
 Using GEDIIS/GDIIS optimizer.
 FormGI is forming the generalized inverse of G from B-inverse, IUseBI=4.
 Internal  Forces:  Max     0.000000138 RMS     0.000000069
 Search for a local minimum.
 Step number   6 out of a maximum of   20
 All quantities printed in internal units (Hartrees-Bohrs-Radians)
 Mixed Optimization -- En-DIIS/RFO-DIIS
 Swapping is turned off.
 Update second derivatives using D2CorX and points    1    2    3    4    5
                                                      6
 DE= -1.05D-08 DEPred=-2.50D-11 R= 4.20D+02
 Trust test= 4.20D+02 RLast= 1.27D-05 DXMaxT set to 1.76D-01
 The second derivative matrix:
                          R1        R2        R3        A1        A2
           R1           0.82919
           R2           0.02157   0.35312
           R3           0.02157  -0.01918   0.35312
           A1           0.02683  -0.00637  -0.00637   0.15616
           A2           0.02683  -0.00637  -0.00637  -0.00384   0.15616
           A3          -0.05366   0.01274   0.01274   0.00768   0.00768
           D1          -0.00000  -0.00000  -0.00000   0.00000   0.00000
                          A3        D1
           A3           0.14464
           D1          -0.00000   0.00499
 ITU=  0 -1  1  1  1  0
     Eigenvalues ---    0.00499   0.12776   0.16000   0.33536   0.37230
     Eigenvalues ---    0.83697
 En-DIIS/RFO-DIIS IScMMF=        0 using points:     6    5    4    3
 RFO step:  Lambda= 0.00000000D+00.
 DidBck=F Rises=F RFO-DIIS coefs:    1.11641   -0.12600    0.00966   -0.00007
 Iteration  1 RMS(Cart)=  0.00000023 RMS(Int)=  0.00000000
 ClnCor:  largest displacement from symmetrization is 4.50D-14 for atom     2.
 Variable       Old X    -DE/DX   Delta X   Delta X   Delta X     New X
                                 (Linear)    (Quad)   (Total)
    R1        2.31248   0.00000   0.00000  -0.00000   0.00000   2.31248
    R2        2.10043  -0.00000  -0.00000   0.00000  -0.00000   2.10043
    R3        2.10043  -0.00000  -0.00000  -0.00000  -0.00000   2.10043
    A1        2.12308   0.00000   0.00000  -0.00000   0.00000   2.12308
    A2        2.12308   0.00000   0.00000   0.00000   0.00000   2.12308
    A3        2.03703  -0.00000  -0.00000   0.00000  -0.00000   2.03703
    D1        3.14159   0.00000  -0.00000   0.00000   0.00000   3.14159
         Item               Value     Threshold  Converged?
 Maximum Force            0.000000     0.000002     YES
 RMS     Force            0.000000     0.000001     YES
 Maximum Displacement     0.000000     0.000006     YES
 RMS     Displacement     0.000000     0.000004     YES
 Predicted change in Energy=-3.610550D-14
 Optimization completed.
    -- Stationary point found.
                           ----------------------------
                           !   Optimized Parameters   !
                           ! (Angstroms and Degrees)  !
 --------------------------                            --------------------------
 ! Name  Definition              Value          Derivative Info.                !
 --------------------------------------------------------------------------------
 ! R1    R(1,2)                  1.2237         -DE/DX =    0.0                 !
 ! R2    R(2,3)                  1.1115         -DE/DX =    0.0                 !
 ! R3    R(2,4)                  1.1115         -DE/DX =    0.0                 !
 ! A1    A(1,2,3)              121.6433         -DE/DX =    0.0                 !
 ! A2    A(1,2,4)              121.6433         -DE/DX =    0.0                 !
 ! A3    A(3,2,4)              116.7133         -DE/DX =    0.0                 !
 ! D1    D(1,2,4,3)            180.0            -DE/DX =    0.0                 !
 --------------------------------------------------------------------------------
 GradGradGradGradGradGradGradGradGradGradGradGradGradGradGradGradGradGrad

                          Input orientation:                          
 ---------------------------------------------------------------------
 Center     Atomic      Atomic             Coordinates (Angstroms)
 Number     Number       Type             X           Y           Z
 ---------------------------------------------------------------------
      1          8           0        0.000000   -0.000000   -0.026847
      2          6           0       -0.000000    0.000000    1.196865
      3          1           0        0.946254    0.000000    1.779991
      4          1           0       -0.946254   -0.000000    1.779991
 ---------------------------------------------------------------------
                    Distance matrix (angstroms):
                    1          2          3          4
     1  O    0.000000
     2  C    1.223712   0.000000
     3  H    2.039623   1.111500   0.000000
     4  H    2.039623   1.111500   1.892508   0.000000
 Stoichiometry    CH2O
 Framework group  C2V[C2(CO),SGV(H2)]
 Deg. of freedom     3
 Full point group                 C2V     NOp   4
 Largest Abelian subgroup         C2V     NOp   4
 Largest concise Abelian subgroup C2      NOp   2
                         Standard orientation:                         
 ---------------------------------------------------------------------
 Center     Atomic      Atomic             Coordinates (Angstroms)
 Number     Number       Type             X           Y           Z
 ---------------------------------------------------------------------
      1          8           0       -0.000000    0.000000    0.684747
      2          6           0        0.000000    0.000000   -0.538965
      3          1           0        0.000000    0.946254   -1.122091
      4          1           0       -0.000000   -0.946254   -1.122091
 ---------------------------------------------------------------------
 Rotational constants (GHZ):    161.0165591     30.8094869     25.8611261

 **********************************************************************

            Population analysis using the MP2 density.

 **********************************************************************

 Orbital symmetries:
       Occupied  (A1) (A1) (A1) (A1) (B2) (A1) (B1) (B2)
       Virtual   (A1) (B2) (B1) (A1) (B1) (B2) (A1) (A1) (A1) (B2)
                 (B1) (A1) (A2) (B2) (A1) (B1) (B2) (A1) (B2) (A1)
                 (A2) (B1) (A1) (B2) (A1) (B1) (A1) (B2) (A1) (A2)
                 (B2) (B1) (A1) (A1) (A2) (B2) (B1) (A1) (B2) (B1)
                 (A1) (B2) (A1) (B1) (A1) (A2) (B2) (A1) (A1) (B2)
                 (A1) (A2) (A1) (B1) (B2) (A1)
 The electronic state is 1-A1.
 Alpha  occ. eigenvalues --  -20.59051 -11.35770  -1.40077  -0.87198  -0.68971
 Alpha  occ. eigenvalues --   -0.64880  -0.53071  -0.44424
 Alpha virt. eigenvalues --    0.03259   0.05049   0.06744   0.08958   0.14523
 Alpha virt. eigenvalues --    0.15552   0.15977   0.21957   0.25512   0.26566
 Alpha virt. eigenvalues --    0.26732   0.32233   0.34085   0.35321   0.44533
 Alpha virt. eigenvalues --    0.45016   0.46708   0.51165   0.55049   0.55373
 Alpha virt. eigenvalues --    0.59477   0.61603   0.63974   0.67905   0.74692
 Alpha virt. eigenvalues --    0.84267   0.88907   0.99379   1.05182   1.20815
 Alpha virt. eigenvalues --    1.21469   1.22637   1.27310   1.41889   1.49229
 Alpha virt. eigenvalues --    1.49270   1.62348   1.62536   1.80913   1.81591
 Alpha virt. eigenvalues --    1.93765   1.94761   2.06640   2.13472   2.16790
 Alpha virt. eigenvalues --    2.21339   2.36957   2.52860   2.64648   2.91556
 Alpha virt. eigenvalues --    3.27873   3.68708   3.69665   3.73734   3.87447
 Alpha virt. eigenvalues --    4.02589
          Condensed to atoms (all electrons):
               1          2          3          4
     1  O    8.171066   0.276284  -0.025013  -0.025013
     2  C    0.276284   4.534505   0.286496   0.286496
     3  H   -0.025013   0.286496   0.983067  -0.135102
     4  H   -0.025013   0.286496  -0.135102   0.983067
 Mulliken charges:
               1
     1  O   -0.397323
     2  C    0.616220
     3  H   -0.109448
     4  H   -0.109448
 Sum of Mulliken charges =   0.00000
 Mulliken charges with hydrogens summed into heavy atoms:
               1
     1  O   -0.397323
     2  C    0.397323
 Electronic spatial extent (au):  <R**2>=             62.0540
 Charge=              0.0000 electrons
 Dipole moment (field-independent basis, Debye):
    X=              0.0000    Y=             -0.0000    Z=             -2.4114  Tot=              2.4114
 Quadrupole moment (field-independent basis, Debye-Ang):
   XX=            -11.9310   YY=            -11.9077   ZZ=            -12.5407
   XY=             -0.0000   XZ=             -0.0000   YZ=             -0.0000
 Traceless Quadrupole moment (field-independent basis, Debye-Ang):
   XX=              0.1955   YY=              0.2187   ZZ=             -0.4143
   XY=             -0.0000   XZ=             -0.0000   YZ=             -0.0000
 Octapole moment (field-independent basis, Debye-Ang**2):
  XXX=              0.0000  YYY=             -0.0000  ZZZ=              0.5906  XYY=              0.0000
  XXY=             -0.0000  XXZ=              0.6793  XZZ=              0.0000  YZZ=              0.0000
  YYZ=             -0.6857  XYZ=             -0.0000
 Hexadecapole moment (field-independent basis, Debye-Ang**3):
 XXXX=            -11.0340 YYYY=            -19.3029 ZZZZ=            -48.8139 XXXY=             -0.0000
 XXXZ=             -0.0000 YYYX=             -0.0000 YYYZ=             -0.0000 ZZZX=             -0.0000
[...]
 Qvib               0.49715D-01          0.55621D-01
 QZvib              0.58497D+01          0.61909D+01
 Energy             0.12943D+03          0.12945D+03         kJ/mol
 Enthalpy           0.14190D+03          0.14192D+03         kJ/mol
 Entropy            0.31360D+03          0.31454D+03         J/(mol K)
 Sp.Heat(V)         0.64977D+02          0.65487D+02         J/(mol K)
 Sp.Heat(P)         0.73291D+02          0.73802D+02         J/(mol K)

 T = 2000.00 K;  P =   1.00 atm
                    Harmonic value     SPT anharmonic value
 Qvib               0.37938D+00          0.42552D+00
 QZvib              0.13554D+02          0.14582D+02
 Energy             0.16296D+03          0.16320D+03         kJ/mol
 Enthalpy           0.17959D+03          0.17983D+03         kJ/mol
 Entropy            0.33526D+03          0.33633D+03         J/(mol K)
 Sp.Heat(V)         0.68750D+02          0.69110D+02         J/(mol K)
 Sp.Heat(P)         0.77065D+02          0.77424D+02         J/(mol K)

     ==================================================
               Anharmonic Transition Moments
     ==================================================

 Electric dipole : Fundamental Bands
 ------------------------------------------------------------------------
  Mode(Quanta)             X                 Y                 Z
    1(1)               -0.248415E-15      0.129821E-01      0.414985E-16
    2(1)               -0.355893E-01     -0.101932E-15     -0.267876E-01
    3(1)               -0.267781E-01      0.181753E-16      0.426974E-01
    4(1)               -0.145986E-01     -0.655897E-16     -0.354400E-01
    5(1)                0.782219E-02      0.550310E-16      0.114826E-01
    6(1)               -0.242657E-01     -0.822358E-16      0.318984E-02

 Electric dipole : Overtones
 ------------------------------------------------------------------------
  Mode(Quanta)             X                 Y                 Z
    1(2)                0.294143E-02      0.131205E-16     -0.761430E-02
    2(2)               -0.191910E-02      0.116920E-16     -0.201177E-02
    3(2)                0.262962E-02     -0.373915E-17     -0.451652E-02
    4(2)               -0.216050E-02     -0.428541E-17     -0.631215E-02
    5(2)                0.614280E-02      0.310859E-16      0.365947E-02
    6(2)               -0.429766E-02      0.552589E-17      0.959600E-02

 Electric dipole : Combination Bands
 ------------------------------------------------------------------------
  Mode(Quanta)             X                 Y                 Z
    2(1)    1(1)       -0.500662E-17     -0.128356E-02      0.836371E-18
    3(1)    1(1)        0.127346E-17      0.457376E-03     -0.212736E-18
    3(1)    2(1)        0.263507E-02     -0.155795E-17     -0.933075E-03
    4(1)    1(1)        0.541162E-19     -0.281024E-02     -0.904027E-20
    4(1)    2(1)       -0.496663E-02      0.660979E-18     -0.392227E-02
    4(1)    3(1)       -0.214170E-02      0.340675E-17      0.707422E-02
    5(1)    1(1)       -0.835684E-18     -0.196481E-03      0.139603E-18
    5(1)    2(1)       -0.152541E-02      0.187375E-17      0.474765E-03
    5(1)    3(1)        0.144994E-02      0.110046E-16      0.343453E-02
    5(1)    4(1)       -0.876187E-03      0.157618E-17      0.537081E-03
    6(1)    1(1)       -0.175518E-17     -0.721129E-03      0.293207E-18
    6(1)    2(1)       -0.195317E-02      0.128447E-17     -0.898142E-03
    6(1)    3(1)       -0.518554E-03     -0.396401E-18     -0.747902E-03
    6(1)    4(1)       -0.839503E-03     -0.250303E-17     -0.183406E-02
    6(1)    5(1)        0.282287E-03     -0.227119E-17     -0.149793E-02
 ERROR: Missing derivatives of the polarizability tensor moment.

     ==================================================
              Anharmonic Infrared Spectroscopy
     ==================================================

 Units: Energies (E) in cm^-1
        Integrated intensity (I) in km.mol^-1

 Fundamental Bands
 -----------------
    Mode(Quanta)       E(harm)   E(anharm)       I(harm)        I(anharm)
     1(1)              1036.668   1019.245      2.78213998      2.78179434
     2(1)              3022.143   2864.375     83.21157036     92.03799779
     3(1)              1918.480   1859.357     78.20752773     76.48511144
     4(1)              1660.249   1630.227     40.98820836     38.78466203
     5(1)              1399.294   1370.966      4.66544706      4.28574534
     6(1)               904.625    892.062      8.54843740      8.65326812

 Overtones
 ---------
    Mode(Quanta)       E(harm)   E(anharm)                      I(anharm)
     1(2)              2073.336   2035.811                      2.19665060
     2(2)              6044.287   5601.333                      0.70119269
     3(2)              3836.959   3677.621                      1.62669659
     4(2)              3320.498   3246.038                      2.33979669
     5(2)              2798.588   2724.050                      2.25533362
     6(2)              1809.250   1778.733                      3.18448106

 Combination Bands
 -----------------
    Mode(Quanta)       E(harm)   E(anharm)                      I(anharm)
     2(1)     1(1)     4058.812   3870.413                      0.10326318
     3(1)     1(1)     2955.148   2867.701                      0.00971488
     3(1)     2(1)     4940.623   4725.335                      0.59796292
     4(1)     1(1)     2696.917   2644.455                      0.33820593
     4(1)     2(1)     4682.392   4497.932                      2.91735687
     4(1)     3(1)     3578.729   3474.240                      3.07368876
     5(1)     1(1)     2435.962   2393.534                      0.00149637
     5(1)     2(1)     4421.438   4220.692                      0.17444804
     5(1)     3(1)     3317.774   3227.798                      0.72648524
     5(1)     4(1)     3059.543   3000.454                      0.05131847
     6(1)     1(1)     1941.293   1911.106                      0.01609415
     6(1)     2(1)     3926.768   3756.997                      0.28117976
     6(1)     3(1)     2823.105   2746.008                      0.03683182
     6(1)     4(1)     2564.874   2515.823                      0.16575862
     6(1)     5(1)     2303.919   2263.695                      0.08517561


 GradGradGradGradGradGradGradGradGradGradGradGradGradGradGradGradGradGrad
 Berny optimization.
 Internal  Forces:  Max     0.000000164 RMS     0.000000082
 Search for a local minimum.
 Step number   1 out of a maximum of    2
 All quantities printed in internal units (Hartrees-Bohrs-Radians)
 Second derivative matrix not updated -- analytic derivatives used.
 The second derivative matrix:
                          R1        R2        R3        A1        A2
           R1           0.78932
           R2           0.03121   0.32325
           R3           0.03121   0.00380   0.32325
           A1           0.01941   0.00164  -0.01076   0.11491
           A2           0.01941  -0.01076   0.00164  -0.07206   0.11491
           A3          -0.03881   0.00912   0.00912  -0.04285  -0.04285
           D1          -0.00000  -0.00000   0.00000  -0.00000   0.00000
                          A3        D1
           A3           0.08570
           D1           0.00000   0.06794
 ITU=  0
     Eigenvalues ---    0.06794   0.12336   0.18582   0.32060   0.32490
     Eigenvalues ---    0.79665
 Angle between quadratic step and forces=  90.00 degrees.
 Linear search not attempted -- first point.
 Iteration  1 RMS(Cart)=  0.00000024 RMS(Int)=  0.00000000
 ClnCor:  largest displacement from symmetrization is 2.47D-15 for atom     2.
 Variable       Old X    -DE/DX   Delta X   Delta X   Delta X     New X
                                 (Linear)    (Quad)   (Total)
    R1        2.31248   0.00000   0.00000   0.00000   0.00000   2.31248
    R2        2.10043  -0.00000   0.00000  -0.00000  -0.00000   2.10043
    R3        2.10043  -0.00000   0.00000  -0.00000  -0.00000   2.10043
    A1        2.12308   0.00000   0.00000   0.00000   0.00000   2.12308
    A2        2.12308   0.00000   0.00000   0.00000   0.00000   2.12308
    A3        2.03703  -0.00000   0.00000  -0.00000  -0.00000   2.03703
    D1        3.14159   0.00000   0.00000   0.00000   0.00000   3.14159
         Item               Value     Threshold  Converged?
 Maximum Force            0.000000     0.000002     YES
 RMS     Force            0.000000     0.000001     YES
 Maximum Displacement     0.000000     0.000006     YES
 RMS     Displacement     0.000000     0.000004     YES
 Predicted change in Energy=-5.388455D-14
 Optimization completed.
    -- Stationary point found.
                           ----------------------------
                           !   Optimized Parameters   !
                           ! (Angstroms and Degrees)  !
 --------------------------                            --------------------------
 ! Name  Definition              Value          Derivative Info.                !
 --------------------------------------------------------------------------------
 ! R1    R(1,2)                  1.2237         -DE/DX =    0.0                 !
 ! R2    R(2,3)                  1.1115         -DE/DX =    0.0                 !
 ! R3    R(2,4)                  1.1115         -DE/DX =    0.0                 !
 ! A1    A(1,2,3)              121.6433         -DE/DX =    0.0                 !
 ! A2    A(1,2,4)              121.6433         -DE/DX =    0.0                 !
 ! A3    A(3,2,4)              116.7133         -DE/DX =    0.0                 !
 ! D1    D(1,2,4,3)            180.0            -DE/DX =    0.0                 !
 --------------------------------------------------------------------------------
 GradGradGradGradGradGradGradGradGradGradGradGradGradGradGradGradGradGrad

 1\1\GINC-ARGON\Freq\RMP2-FC\Aug-CC-pVDZ\C1H2O1\B3M2A1\06-Oct-2020\0\\#
 N Geom=AllCheck Guess=TCheck SCRF=Check GenChk RMP2(FC)/Aug-CC-pVDZ Fr
 eq\\Formaldahyde freq\\0,1\O,0.,0.,-0.026846982\C,0.,0.,1.1968648104\H
 ,0.9462538724,0.,1.7799910858\H,-0.9462538724,0.,1.7799910858\\Version
 =ES64L-G09RevE.01\State=1-A1\HF=-113.8831487\MP2=-114.2188773\RMSD=2.6
 56e-09\RMSF=8.389e-08\ZeroPoint=0.0226483\Thermal=0.0255767\Dipole=0.,
 0.,0.9487362\DipoleDeriv=-0.4342531,0.,0.,0.,-0.3184786,0.,0.,0.,-0.74
 45184,0.755278,0.,0.,0.,0.1258556,0.,0.,0.,0.874484,-0.1605125,0.,-0.1
 440268,0.,0.0963115,0.,-0.0834063,0.,-0.0649828,-0.1605125,0.,0.144026
 8,0.,0.0963115,0.,0.0834063,0.,-0.0649828\Polar=17.5881634,0.,12.63146
 63,0.,0.,22.5296056\Quadrupole=0.1626319,0.1453598,-0.3079917,0.,0.,0.
 \PG=C02V [C2(C1O1),SGV(H2)]\NImag=0\\0.06992937,0.,0.01752963,0.,0.,0.
 78932096,-0.10118320,0.,0.,0.60826166,0.,-0.05431628,0.,0.,0.16830112,
 0.,0.,-0.70937755,0.,0.,0.91289467,0.01562691,0.,-0.01203040,-0.253539
 23,0.,-0.08914366,0.25531823,0.,0.01839333,0.,0.,-0.05699242,0.,0.,0.0
 1929957,-0.03558693,0.,-0.03997171,-0.09081687,0.,-0.10175856,0.113788
 93,0.,0.13282397,0.01562691,0.,0.01203040,-0.25353923,0.,0.08914366,-0
 .01740592,0.,0.01261486,0.25531823,0.,0.01839333,0.,0.,-0.05699242,0.,
 0.,0.01929953,0.,0.,0.01929957,0.03558693,0.,-0.03997171,0.09081687,0.
 ,-0.10175856,-0.01261486,0.,0.00890629,-0.11378893,0.,0.13282397\\0.,0
 .,0.00000016,0.,0.,-0.00000020,0.00000010,0.,0.00000002,-0.00000010,0.
 ,0.00000002\\0.00091722,0.,0.01134387,-0.01572385,0.,-0.05206638,-0.00
 324223,0.,0.02020389,-0.07141217,0.,-0.00646434,0.,0.,0.01192778,0.034
 19610,0.,0.03707074,-0.05442405,0.,-0.00392433,-0.00133283,0.,-0.00014
 858,0.00523024,0.,0.01222435,0.00717651,0.,0.00582728,0.,0.,-0.0081435
 6,0.,0.,-0.00222386,-0.00279349,0.,-0.01334070,0.01266054,0.,0.0175477
 0,-0.01307391,0.,-0.00473882,0.00365784,0.,-0.00433146,0.06942416,0.,0
 .00800361,-0.01107392,0.,0.00320687,-0.06200808,0.,-0.01070681,0.,0.,0
 .00268012,0.,0.,0.00454013,0.,0.,0.00348656,-0.01567876,0.,0.02833634,
 0.02155962,0.,-0.05069412,0.00099815,0.,0.00053181,-0.00687901,0.,0.02
 182597,-0.00000018,0.00666816,0.00000023,0.,-0.03189972,0.00000038,0.0
 0000037,-0.00596432,0.,-0.00000051,-0.00596386,-0.00000018,0.01762445,
 0.05596252,0.00000013,0.,0.04111374,-0.00000055,0.,0.04857721,0.000000
 68,-0.00000009,-0.00409021,-0.00000002,0.00000007,-0.06853075,0.000000
 05,-0.00000009,0.00176517,-0.00000002,0.00560583,-0.09649263,0.0000000
 2,-0.05618126,0.08834549,0.,0.00000005,-0.00913557,0.00000009,-0.00000
 009,-0.04465032,-0.00000007,0.,0.05333413,-0.00000002,-0.00000009,0.00
 338637,0.00000002,0.00000007,0.01853209,-0.00000005,0.00000011,0.00638
 197,0.00000003,-0.00000009,-0.00246947,-0.00000002,0.00866944,0.046494
 43,0.00000002,-0.03350969,-0.01572453,0.,0.00045176,-0.02830043,0.,-0.
 00000005,-0.00007845,0.00000009,0.00000009,-0.02155135,-0.00000007,-0.
 00000003,-0.00275870,0.,0.,0.02438849,-0.00000002,0.00515354,0.,0.0302
 7823,-0.02325394,0.,-0.15966689,-0.01180625,0.,0.01339709,-0.09294366,
 0.,-0.01926795,0.,0.,0.02290778,-0.00139725,0.,0.12425016,0.03025568,0
 .,-0.02678884,0.00830054,0.,0.01141291,0.09898035,0.,-0.03258337,-0.08
 071729,0.,-0.01385268,0.,0.,0.00277346,0.,0.,-0.00079564,0.02716184,0.
 ,0.03603938,-0.05533675,0.,-0.09104226,0.02833768,0.,0.05311051,-0.001
 64784,0.,-0.00155607,0.00576956,0.,0.00372494,-0.02656360,0.,-0.000162
 77,0.02244187,0.,0.00284239,0.,0.,-0.00641329,0.,0.,0.01187485,0.,0.,-
 0.00830395,-0.00251065,0.,-0.00062265,0.01168398,0.,-0.00641905,-0.007
 16723,0.,0.00189238,-0.00200610,0.,0.00514932,-0.07557262,0.,-0.095397
 44,-0.01601298,0.,0.90280975,0.06244280,0.,0.02515867,0.03512621,0.,0.
 07896018,0.,0.,-0.07762093,0.01299784,0.,-0.87523563,-0.14019809,0.,0.
 94549296,0.00555969,0.,-0.01507994,0.03188261,0.,0.01818338,-0.0197790
 6,0.,0.00768876,0.,0.,-0.01497422,0.,0.,-0.00249766,-0.01196664,0.,-0.
 01557977,0.01037772,0.,-0.00932630,0.00185476,0.,0.02261370,0.00757012
 ,0.,0.00593425,-0.12945162,0.,0.10901687,-0.01766324,0.,-0.00026584,0.
 13954473,0.,0.00874849,0.,0.,0.01363496,0.,0.,0.00978312,0.,0.,-0.0321
 6658,0.01498178,0.,-0.01199435,0.10466170,0.,-0.06093103,-0.00495820,0
 .,0.00229237,-0.11468528,0.,0.07063301,0.04188272,0.,0.04901519,-0.025
 23872,0.,-0.50052945,-0.04641503,0.,0.05135677,0.55471489,0.,-0.049203
 65,0.,0.,-0.01964188,0.02266437,0.,0.49574384,-0.35136676,0.,-0.380528
 07,-0.00169442,0.,0.00064989,-0.06021113,0.,0.00750376,0.05822300,0.,-
 0.00017294,0.,0.,-0.00215093,0.,0.,-0.00265152,0.00101214,0.,-0.003655
 73,-0.00424850,0.,0.01569111,0.00320108,0.,-0.01596204,0.00622673,0.,-
 0.02676794,-0.44808873,0.,0.32119862,0.00368254,0.,0.00003529,0.438179
 46,0.,0.00036140,0.,0.,0.07099646,0.,0.,0.00497539,0.,0.,-0.07633325,0
 .00156221,0.,0.00844135,0.30425850,0.,-0.13090688,-0.01135474,0.,0.003
 92666,-0.29446597,0.,0.11853886,-0.00242410,0.,0.00056380,-0.03171301,
 0.,0.03482193,0.01774324,0.,0.08086590,-0.73799826,0.,0.01038967,0.,0.
 ,0.07780193,0.01899365,0.,-0.04560613,-0.64226774,0.,-0.15787555,-0.01
 459024,0.,-0.03546623,0.74525869,0.,0.54741084,-0.73962057,0.,-0.01008
 369,0.,0.,-0.11148989,0.,0.,0.13546036,0.01515941,0.,0.00471700,0.5151
 9440,0.,0.22741649,-0.50959324,0.,-0.22535475,-0.00072889,0.,-0.013686
 66,-0.02500367,0.,0.07586325,0.00895212,0.,-0.02076057,0.01678044,0.,-
 0.00086978,0.,0.,0.02329829,0.,0.,-0.01388679,0.,0.,-0.00854172,-0.002
 44005,0.,0.00606720,0.04620744,0.,-0.02393480,-0.00235138,0.,-0.006778
 74,-0.04141601,0.,0.02464635,-0.00165963,0.,-0.00846743,-0.00268789,0.
 ,-0.03961483,0.00966008,0.,-0.01199441,-0.11884005,0.,0.00592111,0.,0.
 ,0.00009649,0.00454350,0.,0.05605406,0.09585024,0.,-0.10862217,0.00164
 146,0.,-0.00332120,0.00517485,0.,-0.00343418,-0.00778131,0.,-0.0003725
 8,0.,0.,0.00491462,0.,0.,-0.00386577,-0.00024754,0.,-0.00226339,0.0026
 2373,0.,0.00347913,-0.00289134,0.,0.00144291,-0.00964192,0.,0.01800350
 ,0.10400512,0.,-0.09695956,0.00096500,0.,0.00051515,-0.09532821,0.,0.0
 0291889,0.,0.,-0.01093223,0.,0.,-0.00067627,0.,0.,0.00868961,-0.001608
 07,0.,-0.01417587,-0.08647956,0.,0.04908897,0.00964673,0.,-0.00265866,
 0.07844091,0.,-0.03225444,-0.00789849,-0.00000032,0.00151626,-0.000780
 95,-0.00000339,-0.07700160,0.01718957,0.00000052,0.01818247,-0.4122843
 5,0.00000038,0.02010347,0.00000389,-0.00000102,0.06361823,-0.00060417,
 0.00000293,0.08708097,-0.18547103,-0.00000488,-0.22902721,-0.00666565,
 -0.00000019,-0.02060747,0.31726553,0.00000066,0.21564831,-0.30106365,0
 .00000104,-0.01068327,-0.00000029,-0.00000099,-0.08932922,0.00000109,-
 0.00000036,0.11288327,0.00247529,0.00000048,-0.00935760,0.20905606,0.0
 0000039,0.11050063,-0.20116949,-0.00000082,-0.09829766,-0.00262543,0.,
 0.00320595,0.07782925,-0.00000002,-0.02957311,-0.00953623,0.00000032,-
 0.01036186,-0.06566759,-0.00000110,-0.01093646,-0.00000021,0.00000150,
 0.00560752,0.00000086,-0.00000010,-0.01287078,-0.00000005,-0.00000029,
 0.01819972,-0.00109017,-0.00000003,-0.00072178,-0.04176751,0.00000060,
 0.03144561,0.00612864,0.00000002,-0.00284536,0.03672903,-0.00000060,-0
 .02787847,-0.01136512,0.,-0.02416655,0.01384184,0.,0.01818073,0.039195
 74,0.,0.03099265,-0.41063297,0.,0.02150662,0.,0.,-0.00256974,-0.017118
 67,0.,-0.00045705,-0.29642903,0.,-0.11567495,-0.03033545,0.,-0.0491329
 3,0.35964903,0.,0.29075024,-0.32206679,0.,0.00411977,0.,0.,-0.03487979
 ,0.,0.,0.03039532,0.00093305,0.,-0.01829535,0.27122722,0.,0.10705310,-
 0.23975995,0.,-0.08448735,0.00250483,0.,0.00429844,0.01178819,0.,0.022
 79745,-0.00724679,0.,-0.03240031,-0.00704623,0.,-0.00145984,0.,0.,0.01
 594291,0.,0.,0.00036469,0.,0.,-0.01484776,0.00234378,0.,0.00057167,-0.
 00579084,0.,0.00907891,-0.00185735,0.,-0.00427039,0.00530441,0.,-0.005
 38019,-0.13997853,0.,-0.14715301,-0.04967131,0.,0.88229820,0.13703693,
 0.,0.06040004,-0.14010884,0.,0.14141286,0.,0.,-0.16421295,0.05010671,0
 .,-0.86441285,-0.16208595,0.,0.89974231,0.00089946,0.,-0.01157713,0.02
 131603,0.,0.02845731,-0.01174085,0.,0.00227582,0.,0.,-0.00071828,0.,0.
 ,-0.00496562,-0.00522463,0.,-0.01272451,0.02633738,0.,0.02199956,-0.01
 560515,0.,-0.01043313,0.00204213,0.,0.00084840,-0.01824413,0.,0.083521
 93,-0.01047465,0.,-0.00550760,0.02667664,0.,0.00346431,0.,0.,0.0235183
 7,0.,0.,0.00340807,0.,0.,-0.03039075,0.00478924,0.,-0.00516085,0.07534
 853,0.,-0.05732902,-0.00127503,0.,0.00115808,-0.07886274,0.,0.06133179
 ,-0.04582815,0.,-0.04428363,0.06225160,0.,0.27819299,0.05087630,0.,-0.
 06483859,0.63185481,0.,0.04576445,0.,0.,-0.26383360,-0.06890886,0.,-0.
 27979373,-0.46857186,0.,0.36490328,-0.00390949,0.,0.00536576,0.0179752
 3,0.,0.01677582,-0.01747647,0.,-0.00053848,0.,0.,-0.00347873,0.,0.,0.0
 0379275,0.00406769,0.,0.00046213,0.01458067,0.,0.00670284,-0.01892372,
 0.,-0.00953219,-0.00113866,0.,-0.00277878,-0.70070635,0.,0.52070490,0.
 00341073,0.,0.00027536,0.69843427,0.,-0.00094233,0.,0.,0.22154788,0.,0
 .,0.00022446,0.,0.,-0.22083001,0.00258956,0.,0.00113861,0.51882977,0.,
 -0.09181239,-0.00321786,0.,0.00236722,-0.51820148,0.,0.08830656,0.0048
 4696,0.,0.01131254,-0.01284595,0.,-0.02956999,-0.01051202,0.,-0.026268
 11,1.97543772,0.,-0.01632720,0.,0.,-0.61023728,0.02481745,0.,0.0232604
 9,1.62900645,0.,0.40569735,0.00937184,0.,0.04133013,-1.96112713,0.,-1.
 64259181,1.94741461,0.,0.00571714,0.,0.,0.63036051,0.,0.,-0.64485869,-
 0.00914426,0.,0.00641377,-1.61851613,0.,-0.42763778,1.59818721,0.,0.42
 281720,-0.00370679,0.,-0.00221606,-0.00379858,0.,-0.01123209,0.0043406
 7,0.,0.02947318,0.00316470,0.,-0.00070248,0.,0.,-0.00379603,0.,0.,0.00
 878104,0.,0.,-0.00428252,-0.00282724,0.,-0.00010428,0.01577779,0.,-0.0
 0132006,0.00307447,0.,-0.00159319,-0.01602502,0.,0.00301753\\@


 Where a calculator on the ENIAC is equipped with 18,000
 vacuum tubes and weighs 30 tons, computers inthe future
 may  have only 1,000 vacuum tubes and weigh only 1 1/2 tons.
              ---Popular Mechanics, March 1949
 Job cpu time:       0 days  3 hours 16 minutes 16.9 seconds.
 File lengths (MBytes):  RWF=    155 Int=      0 D2E=      0 Chk=     39 Scr=      1
 Normal termination of Gaussian 09 at Tue Oct  6 22:43:38 2020.
