 Entering Gaussian System, Link 0=g09
 Input=water_dimer_freq.gjf
 Output=water_dimer_freq.log
 Initial command:
 /usr/local/gaussian/g09/l1.exe "/scratch/Gau-11614.inp" -scrdir="/scratch/"
 Entering Link 1 = /usr/local/gaussian/g09/l1.exe PID=     11615.
  
 Copyright (c) 1988,1990,1992,1993,1995,1998,2003,2009,2015,
            Gaussian, Inc.  All Rights Reserved.
  
 This is part of the Gaussian(R) 09 program.  It is based on
 the Gaussian(R) 03 system (copyright 2003, Gaussian, Inc.),
 the Gaussian(R) 98 system (copyright 1998, Gaussian, Inc.),
 the Gaussian(R) 94 system (copyright 1995, Gaussian, Inc.),
 the Gaussian 92(TM) system (copyright 1992, Gaussian, Inc.),
 the Gaussian 90(TM) system (copyright 1990, Gaussian, Inc.),
 the Gaussian 88(TM) system (copyright 1988, Gaussian, Inc.),
 the Gaussian 86(TM) system (copyright 1986, Carnegie Mellon
 University), and the Gaussian 82(TM) system (copyright 1983,
 Carnegie Mellon University). Gaussian is a federally registered
 trademark of Gaussian, Inc.
  
 This software contains proprietary and confidential information,
 including trade secrets, belonging to Gaussian, Inc.
  
 This software is provided under written license and may be
 used, copied, transmitted, or stored only in accord with that
 written license.
  
 The following legend is applicable only to US Government
 contracts under FAR:
  
                    RESTRICTED RIGHTS LEGEND
  
 Use, reproduction and disclosure by the US Government is
 subject to restrictions as set forth in subparagraphs (a)
 and (c) of the Commercial Computer Software - Restricted
 Rights clause in FAR 52.227-19.
  
 Gaussian, Inc.
 340 Quinnipiac St., Bldg. 40, Wallingford CT 06492
  
  
 ---------------------------------------------------------------
 Warning -- This program may not be used in any manner that
 competes with the business of Gaussian, Inc. or will provide
 assistance to any competitor of Gaussian, Inc.  The licensee
 of this program is prohibited from giving any competitor of
 Gaussian, Inc. access to this program.  By using this program,
 the user acknowledges that Gaussian, Inc. is engaged in the
 business of creating and licensing software in the field of
 computational chemistry and represents and warrants to the
 licensee that it is not a competitor of Gaussian, Inc. and that
 it will not use this program in any manner prohibited above.
 ---------------------------------------------------------------
  

 Cite this work as:
 Gaussian 09, Revision E.01,
 M. J. Frisch, G. W. Trucks, H. B. Schlegel, G. E. Scuseria, 
 M. A. Robb, J. R. Cheeseman, G. Scalmani, V. Barone, B. Mennucci, 
 G. A. Petersson, H. Nakatsuji, M. Caricato, X. Li, H. P. Hratchian, 
 A. F. Izmaylov, J. Bloino, G. Zheng, J. L. Sonnenberg, M. Hada, 
 M. Ehara, K. Toyota, R. Fukuda, J. Hasegawa, M. Ishida, T. Nakajima, 
 Y. Honda, O. Kitao, H. Nakai, T. Vreven, J. A. Montgomery, Jr., 
 J. E. Peralta, F. Ogliaro, M. Bearpark, J. J. Heyd, E. Brothers, 
 K. N. Kudin, V. N. Staroverov, T. Keith, R. Kobayashi, J. Normand, 
 K. Raghavachari, A. Rendell, J. C. Burant, S. S. Iyengar, J. Tomasi, 
 M. Cossi, N. Rega, J. M. Millam, M. Klene, J. E. Knox, J. B. Cross, 
 V. Bakken, C. Adamo, J. Jaramillo, R. Gomperts, R. E. Stratmann, 
 O. Yazyev, A. J. Austin, R. Cammi, C. Pomelli, J. W. Ochterski, 
 R. L. Martin, K. Morokuma, V. G. Zakrzewski, G. A. Voth, 
 P. Salvador, J. J. Dannenberg, S. Dapprich, A. D. Daniels, 
 O. Farkas, J. B. Foresman, J. V. Ortiz, J. Cioslowski, 
 and D. J. Fox, Gaussian, Inc., Wallingford CT, 2013.
 
 ******************************************
 Gaussian 09:  ES64L-G09RevE.01 30-Nov-2015
                13-Nov-2020 
 ******************************************
 %Chk=water_dimer_freq.chk
 %NProc=8
 Will use up to    8 processors via shared memory.
 %Mem=1000MB
 ----------------------------------------------------------------
 #MP2/aug-cc-pvtz #Density=current #Opt=Z-Matrix #Freq=Anharmonic
 ----------------------------------------------------------------
 1/10=7,18=40,38=1,80=1/1,3;
 2/12=2,17=6,18=5,29=3,40=1/2;
 3/5=16,6=1,7=10,11=9,16=1,25=1,30=1,71=1/1,2,3;
 4//1;
 5/5=2,38=5/2;
 8/6=4,10=1/1;
 9/15=2,16=-3/6;
 10/5=1/2;
 6/7=2,8=2,9=2,10=2,22=-1/1;
 7/12=2,29=1/1,2,3,16;
 1/10=7,18=40,80=1/3(2);
 2/29=3/2;
 99/8=1000/99;
 2/29=3/2;
 3/5=16,6=1,7=10,11=9,16=1,25=1,30=1,71=1/1,2,3;
 4/5=5,16=3,69=1/1;
 5/5=2,38=5/2;
 8/6=4,10=1/1;
 9/15=2,16=-3/6;
 10/5=1/2;
 7/12=2/1,2,3,16;
 1/18=40,80=1/3(-8);
 2/29=3/2;
 6/7=2,8=2,9=2,10=2,22=-1/1;
 99/8=1000/99;
 ----------------------------------------------
 Frequency calc for equilibrium dimer structure
 ----------------------------------------------
 Symbolic Z-matrix:
 Charge =  0 Multiplicity = 1
 H
 O                    1    r1
 H                    2    r2       1    a1
 O                    2    r3       3    a2       1    t1       0
 H                    4    r4       3    a3       1    t2       0
 H                    4    r5       3    a4       1    t3       0
       Variables:
  r1                    0.97274                  
  r2                    0.96477                  
  r3                    2.9721                   
  r4                    0.96659                  
  r5                    0.96659                  
  a1                  104.28458                  
  a2                    5.                       
  a3                  109.24016                  
  a4                  109.24016                  
  t1                  180.                       
  t2                  123.31454                  
  t3                  236.68546                  
 

 GradGradGradGradGradGradGradGradGradGradGradGradGradGradGradGradGradGrad
 Berny optimization.
 Initialization pass.
                       ----------------------------
                       !    Initial Parameters    !
                       ! (Angstroms and Degrees)  !
 ----------------------                            ----------------------
 !      Name          Value   Derivative information (Atomic Units)     !
 ------------------------------------------------------------------------
 !       r1          0.9727   estimate D2E/DX2                          !
 !       r2          0.9648   estimate D2E/DX2                          !
 !       r3          2.9721   estimate D2E/DX2                          !
 !       r4          0.9666   estimate D2E/DX2                          !
 !       r5          0.9666   estimate D2E/DX2                          !
 !       a1        104.2846   estimate D2E/DX2                          !
 !       a2          5.0      estimate D2E/DX2                          !
 !       a3        109.2402   estimate D2E/DX2                          !
 !       a4        109.2402   estimate D2E/DX2                          !
 !       t1        180.0      estimate D2E/DX2                          !
 !       t2        123.3145   estimate D2E/DX2                          !
 !       t3        236.6855   estimate D2E/DX2                          !
 ------------------------------------------------------------------------
 Trust Radius=3.00D-01 FncErr=1.00D-07 GrdErr=1.00D-07
 Number of steps in this run=     22 maximum allowed number of steps=    100.
 GradGradGradGradGradGradGradGradGradGradGradGradGradGradGradGradGradGrad

 ---------------------------------------------------------------------------------------------------
                            Z-MATRIX (ANGSTROMS AND DEGREES)
   CD    Cent   Atom    N1       Length/X        N2       Alpha/Y        N3        Beta/Z          J
 ---------------------------------------------------------------------------------------------------
      1      1  H 
      2      2  O        1   0.972740(     1)
      3      3  H        2   0.964770(     2)      1  104.285(     6)
      4      4  O        2   2.972100(     3)      3    5.000(     7)      1  180.000(    10)      0
      5      5  H        4   0.966590(     4)      3  109.240(     8)      1  123.315(    11)      0
      6      6  H        4   0.966590(     5)      3  109.240(     9)      1  236.685(    12)      0
 ---------------------------------------------------------------------------------------------------
                         Z-Matrix orientation:                         
 ---------------------------------------------------------------------
 Center     Atomic      Atomic             Coordinates (Angstroms)
 Number     Number       Type             X           Y           Z
 ---------------------------------------------------------------------
      1          1           0        0.000000    0.000000    0.000000
      2          8           0        0.000000    0.000000    0.972740
      3          1           0        0.934941    0.000000    1.210786
      4          8           0        2.805335   -0.000000    1.954307
      5          1           0        2.916167    0.762632    2.537749
      6          1           0        2.916167   -0.762632    2.537749
 ---------------------------------------------------------------------
                    Distance matrix (angstroms):
                    1          2          3          4          5
     1  H    0.000000
     2  O    0.972740   0.000000
     3  H    1.529744   0.964770   0.000000
     4  O    3.418950   2.972100   2.012758   0.000000
     5  H    3.940280   3.396306   2.503537   0.966590   0.000000
     6  H    3.940280   3.396306   2.503537   0.966590   1.525264
                    6
     6  H    0.000000
 Stoichiometry    H4O2
 Framework group  CS[SG(H2O2),X(H2)]
 Deg. of freedom     8
 Full point group                 CS      NOp   2
 Largest Abelian subgroup         CS      NOp   2
 Largest concise Abelian subgroup CS      NOp   2
                         Standard orientation:                         
 ---------------------------------------------------------------------
 Center     Atomic      Atomic             Coordinates (Angstroms)
 Number     Number       Type             X           Y           Z
 ---------------------------------------------------------------------
      1          1           0        0.919457    1.869030    0.000000
      2          8           0        0.001298    1.547772    0.000000
      3          1           0        0.085383    0.586673    0.000000
      4          8           0        0.001298   -1.424328   -0.000000
      5          1           0       -0.512804   -1.721629    0.762632
      6          1           0       -0.512804   -1.721629   -0.762632
 ---------------------------------------------------------------------
 Rotational constants (GHZ):    210.4249803      6.1696224      6.1653269
 Standard basis: Aug-CC-pVTZ (5D, 7F)
 There are   135 symmetry adapted cartesian basis functions of A'  symmetry.
 There are    75 symmetry adapted cartesian basis functions of A"  symmetry.
 There are   115 symmetry adapted basis functions of A'  symmetry.
 There are    69 symmetry adapted basis functions of A"  symmetry.
   184 basis functions,   252 primitive gaussians,   210 cartesian basis functions
    10 alpha electrons       10 beta electrons
       nuclear repulsion energy        36.1133163647 Hartrees.
 NAtoms=    6 NActive=    6 NUniq=    5 SFac= 1.44D+00 NAtFMM=   60 NAOKFM=F Big=F
 Integral buffers will be    131072 words long.
 Raffenetti 1 integral format.
 Two-electron integral symmetry is turned on.
 One-electron integrals computed using PRISM.
 NBasis=   184 RedAO= T EigKep=  2.83D-04  NBF=   115    69
 NBsUse=   184 1.00D-06 EigRej= -1.00D+00 NBFU=   115    69
 ExpMin= 2.53D-02 ExpMax= 1.53D+04 ExpMxC= 5.22D+02 IAcc=3 IRadAn=         5 AccDes= 0.00D+00
 Harris functional with IExCor=  205 and IRadAn=       5 diagonalized for initial guess.
 HarFok:  IExCor=  205 AccDes= 0.00D+00 IRadAn=         5 IDoV= 1 UseB2=F ITyADJ=14
 ICtDFT=  3500011 ScaDFX=  1.000000  1.000000  1.000000  1.000000
 FoFCou: FMM=F IPFlag=           0 FMFlag=      100000 FMFlg1=           0
         NFxFlg=           0 DoJE=T BraDBF=F KetDBF=T FulRan=T
         wScrn=  0.000000 ICntrl=     500 IOpCl=  0 I1Cent=   200000004 NGrid=           0
         NMat0=    1 NMatS0=      1 NMatT0=    0 NMatD0=    1 NMtDS0=    0 NMtDT0=    0
 Petite list used in FoFCou.
 Initial guess orbital symmetries:
       Occupied  (A') (A') (A') (A') (A") (A') (A') (A') (A') (A")
       Virtual   (A') (A') (A") (A') (A') (A') (A") (A') (A") (A')
                 (A') (A") (A') (A') (A") (A') (A') (A") (A') (A')
                 (A') (A") (A') (A") (A") (A') (A') (A') (A") (A')
                 (A') (A') (A") (A') (A") (A") (A') (A') (A') (A")
                 (A') (A') (A') (A") (A') (A") (A') (A") (A') (A')
                 (A") (A') (A') (A") (A") (A') (A") (A') (A') (A")
                 (A') (A") (A') (A") (A') (A') (A") (A') (A") (A')
                 (A") (A') (A") (A') (A') (A") (A') (A') (A') (A")
                 (A') (A") (A') (A") (A') (A') (A') (A") (A') (A')
                 (A') (A") (A") (A') (A') (A") (A') (A") (A') (A')
                 (A') (A") (A") (A') (A") (A') (A') (A') (A") (A")
                 (A') (A") (A') (A") (A') (A') (A') (A") (A") (A")
                 (A") (A') (A') (A") (A') (A') (A") (A') (A') (A')
                 (A") (A') (A") (A') (A") (A") (A') (A") (A') (A')
                 (A") (A') (A') (A') (A') (A') (A") (A') (A") (A')
                 (A') (A') (A") (A') (A") (A') (A") (A") (A') (A')
                 (A") (A") (A') (A") (A') (A') (A') (A") (A') (A')
                 (A') (A") (A') (A')
 The electronic state of the initial guess is 1-A'.
 Requested convergence on RMS density matrix=1.00D-08 within 128 cycles.
 Requested convergence on MAX density matrix=1.00D-06.
 Requested convergence on             energy=1.00D-06.
 No special actions if energy rises.
 Initial convergence to 1.0D-05 achieved.  Increase integral accuracy.
 SCF Done:  E(RHF) =  -152.125376327     A.U. after   10 cycles
            NFock= 10  Conv=0.97D-08     -V/T= 2.0018
 ExpMin= 2.53D-02 ExpMax= 1.53D+04 ExpMxC= 5.22D+02 IAcc=3 IRadAn=         5 AccDes= 0.00D+00
 HarFok:  IExCor=  205 AccDes= 0.00D+00 IRadAn=         5 IDoV=-2 UseB2=F ITyADJ=14
 ICtDFT= 12500011 ScaDFX=  1.000000  1.000000  1.000000  1.000000
 Range of M.O.s used for correlation:     3   184
 NBasis=   184 NAE=    10 NBE=    10 NFC=     2 NFV=     0
 NROrb=    182 NOA=     8 NOB=     8 NVA=   174 NVB=   174

 **** Warning!!: The largest alpha MO coefficient is  0.20075725D+02

 Fully direct method using O(ONN) memory.
 JobTyp=1 Pass  1:  I=   3 to   3 NPSUse=  5 ParTrn=T ParDer=T DoDerP=T.
 JobTyp=1 Pass  2:  I=   4 to   4 NPSUse=  5 ParTrn=T ParDer=T DoDerP=T.
 JobTyp=1 Pass  3:  I=   5 to   5 NPSUse=  5 ParTrn=T ParDer=T DoDerP=T.
 JobTyp=1 Pass  4:  I=   6 to   6 NPSUse=  5 ParTrn=T ParDer=T DoDerP=T.
 JobTyp=1 Pass  5:  I=   7 to   7 NPSUse=  5 ParTrn=T ParDer=T DoDerP=T.
 JobTyp=1 Pass  6:  I=   8 to   8 NPSUse=  5 ParTrn=T ParDer=T DoDerP=T.
 JobTyp=1 Pass  7:  I=   9 to   9 NPSUse=  5 ParTrn=T ParDer=T DoDerP=T.
 JobTyp=1 Pass  8:  I=  10 to  10 NPSUse=  5 ParTrn=T ParDer=T DoDerP=T.
 Spin components of T(2) and E(2):
     alpha-alpha T2 =       0.1653584939D-01 E2=     -0.6592833709D-01
     alpha-beta  T2 =       0.9518573590D-01 E2=     -0.4087451828D+00
     beta-beta   T2 =       0.1653584939D-01 E2=     -0.6592833709D-01
 ANorm=    0.1062194631D+01
 E2 =    -0.5406018570D+00 EUMP2 =    -0.15266597818374D+03
          IDoAtm=111111
          Differentiating once with respect to electric field.
                with respect to dipole field.
          Differentiating once with respect to nuclear coordinates.
          There are     1 degrees of freedom in the 1st order CPHF.  IDoFFX=0 NUNeed=     1.
 LinEq1:  Iter=  0 NonCon=     1 RMS=3.36D-03 Max=4.81D-02 NDo=     1
 AX will form     1 AO Fock derivatives at one time.
 LinEq1:  Iter=  1 NonCon=     1 RMS=4.32D-04 Max=4.59D-03 NDo=     1
 LinEq1:  Iter=  2 NonCon=     1 RMS=1.43D-04 Max=1.67D-03 NDo=     1
 LinEq1:  Iter=  3 NonCon=     1 RMS=4.25D-05 Max=3.01D-04 NDo=     1
 LinEq1:  Iter=  4 NonCon=     1 RMS=5.73D-06 Max=4.18D-05 NDo=     1
 LinEq1:  Iter=  5 NonCon=     1 RMS=1.12D-06 Max=8.54D-06 NDo=     1
 LinEq1:  Iter=  6 NonCon=     1 RMS=2.53D-07 Max=2.59D-06 NDo=     1
 LinEq1:  Iter=  7 NonCon=     1 RMS=1.12D-07 Max=1.23D-06 NDo=     1
 LinEq1:  Iter=  8 NonCon=     1 RMS=1.61D-08 Max=1.10D-07 NDo=     1
 LinEq1:  Iter=  9 NonCon=     1 RMS=2.66D-09 Max=2.53D-08 NDo=     1
 LinEq1:  Iter= 10 NonCon=     1 RMS=5.38D-10 Max=4.53D-09 NDo=     1
 LinEq1:  Iter= 11 NonCon=     0 RMS=7.31D-11 Max=7.38D-10 NDo=     1
 Linear equations converged to 1.000D-10 1.000D-09 after    11 iterations.
 End of Minotr F.D. properties file   721 does not exist.
 End of Minotr F.D. properties file   722 does not exist.
 End of Minotr F.D. properties file   788 does not exist.

 **********************************************************************

            Population analysis using the MP2 density.

 **********************************************************************

 Orbital symmetries:
       Occupied  (A') (A') (A') (A') (A") (A') (A') (A') (A') (A")
       Virtual   (A') (A") (A') (A') (A') (A') (A') (A") (A") (A')
                 (A') (A") (A') (A') (A") (A') (A') (A") (A") (A')
                 (A') (A') (A") (A') (A') (A") (A') (A') (A") (A')
                 (A') (A") (A') (A') (A") (A") (A') (A') (A') (A")
                 (A') (A') (A") (A') (A") (A') (A") (A') (A') (A')
                 (A") (A') (A") (A') (A") (A") (A') (A') (A") (A')
                 (A") (A') (A') (A") (A') (A') (A") (A') (A") (A')
                 (A") (A') (A") (A') (A') (A") (A') (A') (A") (A')
                 (A') (A') (A") (A") (A') (A') (A") (A') (A') (A')
                 (A') (A") (A") (A') (A') (A") (A') (A") (A') (A')
                 (A") (A") (A') (A') (A") (A') (A') (A') (A") (A")
                 (A') (A") (A') (A') (A") (A') (A") (A') (A") (A')
                 (A") (A') (A") (A') (A") (A') (A") (A') (A') (A')
                 (A") (A') (A") (A") (A') (A") (A") (A') (A') (A')
                 (A") (A') (A') (A') (A') (A') (A") (A') (A') (A")
                 (A') (A') (A") (A') (A") (A") (A") (A') (A") (A')
                 (A') (A") (A') (A") (A') (A') (A') (A") (A') (A')
                 (A") (A') (A') (A')
 The electronic state is 1-A'.
 Alpha  occ. eigenvalues --  -20.59222 -20.53987  -1.37488  -1.32104  -0.73605
 Alpha  occ. eigenvalues --   -0.69060  -0.61191  -0.56003  -0.53044  -0.48309
 Alpha virt. eigenvalues --    0.02313   0.04574   0.04632   0.07577   0.12152
 Alpha virt. eigenvalues --    0.14255   0.16439   0.16926   0.17762   0.18569
 Alpha virt. eigenvalues --    0.21430   0.21742   0.23418   0.24244   0.26972
 Alpha virt. eigenvalues --    0.26994   0.29661   0.31168   0.36691   0.36847
 Alpha virt. eigenvalues --    0.37129   0.40957   0.40994   0.43790   0.44302
 Alpha virt. eigenvalues --    0.45623   0.47986   0.57894   0.59116   0.61606
 Alpha virt. eigenvalues --    0.66872   0.70958   0.71632   0.72923   0.75234
 Alpha virt. eigenvalues --    0.77480   0.78381   0.79004   0.82608   0.82936
 Alpha virt. eigenvalues --    0.85429   0.88903   0.90363   0.92836   0.94292
 Alpha virt. eigenvalues --    0.95504   0.96346   0.97107   0.98697   0.99656
 Alpha virt. eigenvalues --    1.01547   1.02213   1.02905   1.04498   1.06909
 Alpha virt. eigenvalues --    1.11874   1.14786   1.17732   1.18501   1.22986
 Alpha virt. eigenvalues --    1.23221   1.23411   1.28214   1.28731   1.35292
 Alpha virt. eigenvalues --    1.44716   1.47300   1.49993   1.55423   1.56742
 Alpha virt. eigenvalues --    1.62554   1.64409   1.69779   1.71877   1.81630
 Alpha virt. eigenvalues --    1.82251   1.93494   1.99356   2.05216   2.07931
 Alpha virt. eigenvalues --    2.12919   2.25894   2.30433   2.31704   2.32858
 Alpha virt. eigenvalues --    2.41273   2.42658   2.45174   2.47752   2.48285
 Alpha virt. eigenvalues --    2.49361   2.49831   2.57307   2.59773   2.66829
 Alpha virt. eigenvalues --    2.69233   2.74618   2.75678   2.76721   2.81004
 Alpha virt. eigenvalues --    2.85525   2.89158   2.90960   2.94862   2.99470
 Alpha virt. eigenvalues --    3.01450   3.72241   3.77032   3.77354   4.01592
 Alpha virt. eigenvalues --    4.04977   4.07629   4.18435   4.22025   4.22508
 Alpha virt. eigenvalues --    4.25065   4.27663   4.30013   4.32910   4.39891
 Alpha virt. eigenvalues --    4.40970   4.46470   4.46659   4.47262   4.47638
 Alpha virt. eigenvalues --    4.54546   4.57798   4.71353   4.74089   4.83000
 Alpha virt. eigenvalues --    4.87622   5.00216   5.09780   5.15845   5.16881
 Alpha virt. eigenvalues --    5.20349   5.26478   5.29418   5.33554   5.38769
 Alpha virt. eigenvalues --    5.56110   5.63578   5.72783   5.74100   6.22354
 Alpha virt. eigenvalues --    6.34422   6.51109   6.56345   6.75968   6.77693
 Alpha virt. eigenvalues --    6.91683   6.96827   7.14822   7.15476   7.26313
 Alpha virt. eigenvalues --    7.28121   7.29536   7.32775   7.34698   7.35820
 Alpha virt. eigenvalues --    7.36280   7.40023   7.43076   7.51926   7.55158
 Alpha virt. eigenvalues --    7.71694   7.89769   7.92219   7.99141   8.04017
 Alpha virt. eigenvalues --    8.85036   8.85153  15.60663  16.73469
          Condensed to atoms (all electrons):
               1          2          3          4          5          6
     1  H    0.548564   0.228019   0.021621  -0.001606  -0.000487  -0.000487
     2  O    0.228019   8.145807   0.135026  -0.014090   0.001944   0.001944
     3  H    0.021621   0.135026   0.581353  -0.024163  -0.002239  -0.002239
     4  O   -0.001606  -0.014090  -0.024163   8.074327   0.200200   0.200200
     5  H   -0.000487   0.001944  -0.002239   0.200200   0.563645   0.017687
     6  H   -0.000487   0.001944  -0.002239   0.200200   0.017687   0.563645
 Mulliken charges:
               1
     1  H    0.204376
     2  O   -0.498651
     3  H    0.290641
     4  O   -0.434868
     5  H    0.219251
     6  H    0.219251
 Sum of Mulliken charges =  -0.00000
 Mulliken charges with hydrogens summed into heavy atoms:
               1
     2  O   -0.003634
     4  O    0.003634
 Electronic spatial extent (au):  <R**2>=            197.9947
 Charge=             -0.0000 electrons
 Dipole moment (field-independent basis, Debye):
    X=             -0.1075    Y=             -2.4884    Z=              0.0000  Tot=              2.4907
 Quadrupole moment (field-independent basis, Debye-Ang):
   XX=            -12.0093   YY=            -12.8948   ZZ=            -12.2840
   XY=              6.3663   XZ=             -0.0000   YZ=             -0.0000
 Traceless Quadrupole moment (field-independent basis, Debye-Ang):
   XX=              0.3867   YY=             -0.4988   ZZ=              0.1121
   XY=              6.3663   XZ=             -0.0000   YZ=             -0.0000
 Octapole moment (field-independent basis, Debye-Ang**2):
  XXX=              1.0023  YYY=             -7.3286  ZZZ=              0.0000  XYY=              0.4219
  XXY=              1.2084  XXZ=              0.0000  XZZ=             -1.4228  YZZ=             -6.3338
  YYZ=             -0.0000  XYZ=             -0.0000
 Hexadecapole moment (field-independent basis, Debye-Ang**3):
 XXXX=            -15.0351 YYYY=           -190.0031 ZZZZ=            -14.3940 XXXY=             -1.2861
 XXXZ=             -0.0000 YYYX=             17.8046 YYYZ=              0.0000 ZZZX=             -0.0000
 ZZZY=             -0.0000 XXYY=            -28.7063 XXZZ=             -4.8129 YYZZ=            -30.7119
 XXYZ=             -0.0000 YYXZ=              0.0000 ZZXY=              0.5116
 N-N= 3.611331636472D+01 E-N=-4.335157037696D+02  KE= 1.524807223758D+02
 Symmetry A'   KE= 1.442807448330D+02
 Symmetry A"   KE= 8.199977542812D+00
 Calling FoFJK, ICntrl=  10002127 FMM=F ISym2X=1 I1Cent= 0 IOpClX= 0 NMat=1 NMatS=1 NMatT=0.
 ***** Axes restored to original set *****
 -------------------------------------------------------------------
 Center     Atomic                   Forces (Hartrees/Bohr)
 Number     Number              X              Y              Z
 -------------------------------------------------------------------
      1        1           0.000249576    0.000000000    0.012106694
      2        8          -0.003025369   -0.000000000   -0.012364072
      3        1           0.003739815    0.000000000    0.000476413
      4        8          -0.000213875    0.000000000    0.004900852
      5        1          -0.000375074   -0.003161981   -0.002559944
      6        1          -0.000375074    0.003161981   -0.002559944
 -------------------------------------------------------------------
 Cartesian Forces:  Max     0.012364072 RMS     0.004596611
 -----------------------------------------------------------------------------------------------
                       Internal Coordinate Forces (Hartree/Bohr or radian)
  Cent   Atom   N1       Length/X         N2         Alpha/Y        N3         Beta/Z          J
 -----------------------------------------------------------------------------------------------
      1  H 
      2  O        1  -0.012107(     1)
      3  H        2   0.003733(     2)      1  -0.000459(     6)
      4  O        2  -0.000980(     3)      3   0.000265(     7)      1   0.000000(    10)     0
      5  H        4  -0.004083(     4)      3   0.000099(     8)      1  -0.000234(    11)     0
      6  H        4  -0.004083(     5)      3   0.000099(     9)      1   0.000234(    12)     0
 -----------------------------------------------------------------------------------------------
 Internal  Forces:  Max     0.012106694 RMS     0.004033418

 GradGradGradGradGradGradGradGradGradGradGradGradGradGradGradGradGradGrad
 Berny optimization.
 Search for a local minimum.
 Step number   1 out of a maximum of   22
 All quantities printed in internal units (Hartrees-Bohrs-Radians)
 Second derivative matrix not updated -- first step.
 The second derivative matrix:
                          r1        r2        r3        r4        r5
           r1           0.52821
           r2          -0.00000   0.54472
           r3          -0.00000  -0.00004   0.01865
           r4          -0.00000  -0.00000   0.00000   0.54080
           r5          -0.00000  -0.00000  -0.00000  -0.00000   0.54080
           a1           0.00000  -0.00000   0.00000  -0.00000  -0.00000
           a2           0.00000   0.00162  -0.00053  -0.00000  -0.00000
           a3          -0.00000  -0.00303   0.00098   0.00000   0.00000
           a4          -0.00000  -0.00303   0.00098   0.00000   0.00000
           t1           0.00000  -0.00000  -0.00000   0.00000  -0.00000
           t2           0.00000   0.00016  -0.00005  -0.00000  -0.00000
           t3          -0.00000  -0.00016   0.00005   0.00000   0.00000
                          a1        a2        a3        a4        t1
           a1           0.32000
           a2           0.15999   0.34277
           a3           0.00001  -0.04249   0.19197
           a4           0.00001  -0.04249   0.03218   0.19197
           t1          -0.00000   0.00000  -0.00657   0.00657   0.00765
           t2          -0.00004   0.00215   0.05506   0.06043   0.00336
           t3           0.00004  -0.00215  -0.06043  -0.05506   0.00336
                          t2        t3
           t2           0.11896
           t3          -0.11425   0.11896
 ITU=  0
     Eigenvalues ---    0.00120   0.01039   0.01863   0.09661   0.16056
     Eigenvalues ---    0.18049   0.34283   0.50008   0.52821   0.54080
     Eigenvalues ---    0.54080   0.54486
 RFO step:  Lambda=-4.18416855D-04 EMin= 1.20133641D-03
 Linear search not attempted -- first point.
 Variable       Old X    -DE/DX   Delta X   Delta X   Delta X     New X
                                 (Linear)    (Quad)   (Total)
    r1        1.83821  -0.01211   0.00000  -0.02290  -0.02290   1.81531
    r2        1.82315   0.00373   0.00000   0.00687   0.00687   1.83002
    r3        5.61646  -0.00098   0.00000  -0.05155  -0.05155   5.56490
    r4        1.82659  -0.00408   0.00000  -0.00754  -0.00754   1.81905
    r5        1.82659  -0.00408   0.00000  -0.00754  -0.00754   1.81905
    a1        1.82011  -0.00046   0.00000  -0.00270  -0.00270   1.81741
    a2        0.08727   0.00027   0.00000   0.00254   0.00254   0.08980
    a3        1.90660   0.00010   0.00000   0.00238   0.00238   1.90898
    a4        1.90660   0.00010   0.00000   0.00238   0.00238   1.90898
    t1        3.14159   0.00000   0.00000   0.00000   0.00000   3.14159
    t2        2.15224  -0.00023   0.00000  -0.00222  -0.00222   2.15003
    t3        4.13094   0.00023   0.00000   0.00222   0.00222   4.13316
         Item               Value     Threshold  Converged?
 Maximum Force            0.012107     0.000450     NO 
 RMS     Force            0.004033     0.000300     NO 
 Maximum Displacement     0.051552     0.001800     NO 
 RMS     Displacement     0.016778     0.001200     NO 
 Predicted change in Energy=-2.099176D-04
 GradGradGradGradGradGradGradGradGradGradGradGradGradGradGradGradGradGrad

 ---------------------------------------------------------------------------------------------------
                            Z-MATRIX (ANGSTROMS AND DEGREES)
   CD    Cent   Atom    N1       Length/X        N2       Alpha/Y        N3        Beta/Z          J
 ---------------------------------------------------------------------------------------------------
      1      1  H 
      2      2  O        1   0.960621(     1)
      3      3  H        2   0.968403(     2)      1  104.130(     6)
      4      4  O        2   2.944820(     3)      3    5.145(     7)      1  180.000(    10)      0
      5      5  H        4   0.962598(     4)      3  109.376(     8)      1  123.188(    11)      0
      6      6  H        4   0.962598(     5)      3  109.376(     9)      1  236.812(    12)      0
 ---------------------------------------------------------------------------------------------------
                         Z-Matrix orientation:                         
 ---------------------------------------------------------------------
 Center     Atomic      Atomic             Coordinates (Angstroms)
 Number     Number       Type             X           Y           Z
 ---------------------------------------------------------------------
      1          1           0        0.000000    0.000000    0.000000
      2          8           0        0.000000    0.000000    0.960621
      3          1           0        0.939104    0.000000    1.197029
      4          8           0        2.779744    0.000000    1.932725
      5          1           0        2.891814    0.759953    2.512818
      6          1           0        2.891814   -0.759953    2.512818
 ---------------------------------------------------------------------
                    Distance matrix (angstroms):
                    1          2          3          4          5
     1  H    0.000000
     2  O    0.960621   0.000000
     3  H    1.521445   0.968403   0.000000
     4  O    3.385617   2.944820   1.982223   0.000000
     5  H    3.905684   3.368892   2.474249   0.962598   0.000000
     6  H    3.905684   3.368892   2.474249   0.962598   1.519905
                    6
     6  H    0.000000
 Stoichiometry    H4O2
 Framework group  CS[SG(H2O2),X(H2)]
 Deg. of freedom     8
 Full point group                 CS      NOp   2
 Largest Abelian subgroup         CS      NOp   2
 Largest concise Abelian subgroup CS      NOp   2
                         Standard orientation:                         
 ---------------------------------------------------------------------
 Center     Atomic      Atomic             Coordinates (Angstroms)
 Number     Number       Type             X           Y           Z
 ---------------------------------------------------------------------
      1          1           0        0.908149    1.851615    0.000000
      2          8           0        0.001377    1.534508    0.000000
      3          1           0        0.088225    0.570007    0.000000
      4          8           0        0.001377   -1.410312   -0.000000
      5          1           0       -0.509202   -1.707592    0.759953
      6          1           0       -0.509202   -1.707592   -0.759953
 ---------------------------------------------------------------------
 Rotational constants (GHZ):    213.3704908      6.2833418      6.2801903
 Standard basis: Aug-CC-pVTZ (5D, 7F)
 There are   135 symmetry adapted cartesian basis functions of A'  symmetry.
 There are    75 symmetry adapted cartesian basis functions of A"  symmetry.
 There are   115 symmetry adapted basis functions of A'  symmetry.
 There are    69 symmetry adapted basis functions of A"  symmetry.
   184 basis functions,   252 primitive gaussians,   210 cartesian basis functions
    10 alpha electrons       10 beta electrons
       nuclear repulsion energy        36.3690211407 Hartrees.
 NAtoms=    6 NActive=    6 NUniq=    5 SFac= 1.44D+00 NAtFMM=   60 NAOKFM=F Big=F
 Integral buffers will be    131072 words long.
 Raffenetti 1 integral format.
 Two-electron integral symmetry is turned on.
 One-electron integrals computed using PRISM.
 NBasis=   184 RedAO= T EigKep=  2.79D-04  NBF=   115    69
 NBsUse=   184 1.00D-06 EigRej= -1.00D+00 NBFU=   115    69
 Initial guess from the checkpoint file:  "water_dimer_freq.chk"
 B after Tr=    -0.000000    0.000000    0.000000
         Rot=    1.000000    0.000000    0.000000    0.000000 Ang=   0.00 deg.
 Initial guess orbital symmetries:
       Occupied  (A') (A') (A') (A') (A") (A') (A') (A') (A') (A")
       Virtual   (A') (A') (A') (A') (A') (A') (A') (A') (A') (A')
                 (A') (A') (A') (A') (A') (A') (A') (A') (A') (A')
                 (A') (A') (A') (A') (A') (A') (A') (A') (A') (A')
                 (A') (A') (A') (A') (A') (A') (A') (A') (A') (A')
                 (A') (A') (A') (A') (A') (A') (A') (A') (A') (A')
                 (A') (A') (A') (A') (A') (A') (A') (A') (A') (A')
                 (A') (A') (A') (A') (A') (A') (A') (A') (A') (A')
                 (A') (A') (A') (A') (A') (A') (A') (A') (A') (A')
                 (A') (A') (A') (A') (A') (A') (A') (A') (A') (A')
                 (A') (A') (A') (A') (A') (A') (A') (A') (A') (A')
                 (A') (A') (A') (A') (A') (A') (A') (A") (A") (A")
                 (A") (A") (A") (A") (A") (A") (A") (A") (A") (A")
                 (A") (A") (A") (A") (A") (A") (A") (A") (A") (A")
                 (A") (A") (A") (A") (A") (A") (A") (A") (A") (A")
                 (A") (A") (A") (A") (A") (A") (A") (A") (A") (A")
                 (A") (A") (A") (A") (A") (A") (A") (A") (A") (A")
                 (A") (A") (A") (A") (A") (A") (A") (A") (A") (A")
                 (A") (A") (A") (A")
 ExpMin= 2.53D-02 ExpMax= 1.53D+04 ExpMxC= 5.22D+02 IAcc=3 IRadAn=         5 AccDes= 0.00D+00
 Harris functional with IExCor=  205 and IRadAn=       5 diagonalized for initial guess.
 HarFok:  IExCor=  205 AccDes= 0.00D+00 IRadAn=         5 IDoV= 1 UseB2=F ITyADJ=14
 ICtDFT=  3500011 ScaDFX=  1.000000  1.000000  1.000000  1.000000
 FoFCou: FMM=F IPFlag=           0 FMFlag=      100000 FMFlg1=           0
         NFxFlg=           0 DoJE=T BraDBF=F KetDBF=T FulRan=T
         wScrn=  0.000000 ICntrl=     500 IOpCl=  0 I1Cent=   200000004 NGrid=           0
         NMat0=    1 NMatS0=      1 NMatT0=    0 NMatD0=    1 NMtDS0=    0 NMtDT0=    0
 Petite list used in FoFCou.
 Requested convergence on RMS density matrix=1.00D-08 within 128 cycles.
 Requested convergence on MAX density matrix=1.00D-06.
 Requested convergence on             energy=1.00D-06.
 No special actions if energy rises.
 Initial convergence to 1.0D-05 achieved.  Increase integral accuracy.
 SCF Done:  E(RHF) =  -152.126139943     A.U. after    9 cycles
            NFock=  9  Conv=0.20D-08     -V/T= 2.0015
 ExpMin= 2.53D-02 ExpMax= 1.53D+04 ExpMxC= 5.22D+02 IAcc=3 IRadAn=         5 AccDes= 0.00D+00
 HarFok:  IExCor=  205 AccDes= 0.00D+00 IRadAn=         5 IDoV=-2 UseB2=F ITyADJ=14
 ICtDFT= 12500011 ScaDFX=  1.000000  1.000000  1.000000  1.000000
 Range of M.O.s used for correlation:     3   184
 NBasis=   184 NAE=    10 NBE=    10 NFC=     2 NFV=     0
 NROrb=    182 NOA=     8 NOB=     8 NVA=   174 NVB=   174

 **** Warning!!: The largest alpha MO coefficient is  0.20231988D+02

 Fully direct method using O(ONN) memory.
 JobTyp=1 Pass  1:  I=   3 to   3 NPSUse=  5 ParTrn=T ParDer=T DoDerP=T.
 JobTyp=1 Pass  2:  I=   4 to   4 NPSUse=  5 ParTrn=T ParDer=T DoDerP=T.
 JobTyp=1 Pass  3:  I=   5 to   5 NPSUse=  5 ParTrn=T ParDer=T DoDerP=T.
 JobTyp=1 Pass  4:  I=   6 to   6 NPSUse=  5 ParTrn=T ParDer=T DoDerP=T.
 JobTyp=1 Pass  5:  I=   7 to   7 NPSUse=  5 ParTrn=T ParDer=T DoDerP=T.
 JobTyp=1 Pass  6:  I=   8 to   8 NPSUse=  5 ParTrn=T ParDer=T DoDerP=T.
 JobTyp=1 Pass  7:  I=   9 to   9 NPSUse=  5 ParTrn=T ParDer=T DoDerP=T.
 JobTyp=1 Pass  8:  I=  10 to  10 NPSUse=  5 ParTrn=T ParDer=T DoDerP=T.
 Spin components of T(2) and E(2):
     alpha-alpha T2 =       0.1647347735D-01 E2=     -0.6589094784D-01
     alpha-beta  T2 =       0.9471089642D-01 E2=     -0.4082855185D+00
     beta-beta   T2 =       0.1647347735D-01 E2=     -0.6589094784D-01
 ANorm=    0.1061912356D+01
 E2 =    -0.5400674142D+00 EUMP2 =    -0.15266620735751D+03
          IDoAtm=111111
          Differentiating once with respect to electric field.
                with respect to dipole field.
          Differentiating once with respect to nuclear coordinates.
          There are     1 degrees of freedom in the 1st order CPHF.  IDoFFX=0 NUNeed=     1.
 LinEq1:  Iter=  0 NonCon=     1 RMS=3.34D-03 Max=4.73D-02 NDo=     1
 AX will form     1 AO Fock derivatives at one time.
 LinEq1:  Iter=  1 NonCon=     1 RMS=4.26D-04 Max=4.54D-03 NDo=     1
 LinEq1:  Iter=  2 NonCon=     1 RMS=1.39D-04 Max=1.64D-03 NDo=     1
 LinEq1:  Iter=  3 NonCon=     1 RMS=4.17D-05 Max=3.27D-04 NDo=     1
 LinEq1:  Iter=  4 NonCon=     1 RMS=5.59D-06 Max=4.15D-05 NDo=     1
 LinEq1:  Iter=  5 NonCon=     1 RMS=1.09D-06 Max=8.16D-06 NDo=     1
 LinEq1:  Iter=  6 NonCon=     1 RMS=2.37D-07 Max=2.38D-06 NDo=     1
 LinEq1:  Iter=  7 NonCon=     1 RMS=1.05D-07 Max=1.17D-06 NDo=     1
 LinEq1:  Iter=  8 NonCon=     1 RMS=1.53D-08 Max=1.07D-07 NDo=     1
 LinEq1:  Iter=  9 NonCon=     1 RMS=2.37D-09 Max=2.24D-08 NDo=     1
 LinEq1:  Iter= 10 NonCon=     1 RMS=4.76D-10 Max=3.68D-09 NDo=     1
 LinEq1:  Iter= 11 NonCon=     0 RMS=6.91D-11 Max=7.01D-10 NDo=     1
 Linear equations converged to 1.000D-10 1.000D-09 after    11 iterations.
 End of Minotr F.D. properties file   721 does not exist.
 End of Minotr F.D. properties file   722 does not exist.
 End of Minotr F.D. properties file   788 does not exist.
 Calling FoFJK, ICntrl=  10002127 FMM=F ISym2X=1 I1Cent= 0 IOpClX= 0 NMat=1 NMatS=1 NMatT=0.
 ***** Axes restored to original set *****
 -------------------------------------------------------------------
 Center     Atomic                   Forces (Hartrees/Bohr)
 Number     Number              X              Y              Z
 -------------------------------------------------------------------
      1        1          -0.000356519    0.000000000    0.000010292
      2        8           0.000768112   -0.000000000   -0.000122338
      3        1           0.000187382    0.000000000    0.000200586
      4        8          -0.000718520    0.000000000    0.000521544
      5        1           0.000059773    0.000037033   -0.000305041
      6        1           0.000059773   -0.000037033   -0.000305041
 -------------------------------------------------------------------
 Cartesian Forces:  Max     0.000768112 RMS     0.000315506
 -----------------------------------------------------------------------------------------------
                       Internal Coordinate Forces (Hartree/Bohr or radian)
  Cent   Atom   N1       Length/X         N2         Alpha/Y        N3         Beta/Z          J
 -----------------------------------------------------------------------------------------------
      1  H 
      2  O        1  -0.000010(     1)
      3  H        2   0.000221(     2)      1   0.000647(     6)
      4  O        2  -0.000592(     3)      3   0.000249(     7)      1   0.000000(    10)     0
      5  H        4  -0.000148(     4)      3  -0.000017(     8)      1  -0.000473(    11)     0
      6  H        4  -0.000148(     5)      3  -0.000017(     9)      1   0.000473(    12)     0
 -----------------------------------------------------------------------------------------------
 Internal  Forces:  Max     0.000647236 RMS     0.000338184

 GradGradGradGradGradGradGradGradGradGradGradGradGradGradGradGradGradGrad
 Berny optimization.
 Search for a local minimum.
 Step number   2 out of a maximum of   22
 All quantities printed in internal units (Hartrees-Bohrs-Radians)
 Update second derivatives using D2CorN and points    1    2
 DE= -2.29D-04 DEPred=-2.10D-04 R= 1.09D+00
 TightC=F SS=  1.41D+00  RLast= 5.81D-02 DXNew= 5.0454D-01 1.7436D-01
 Trust test= 1.09D+00 RLast= 5.81D-02 DXMaxT set to 3.00D-01
 The second derivative matrix:
                          r1        r2        r3        r4        r5
           r1           0.52821
           r2           0.00074   0.54427
           r3          -0.00194   0.00221   0.00995
           r4          -0.00049   0.00039  -0.00174   0.54048
           r5          -0.00049   0.00039  -0.00174  -0.00032   0.54048
           a1           0.00220  -0.00057   0.00472   0.00067   0.00067
           a2           0.00084   0.00129   0.00158   0.00033   0.00033
           a3          -0.00006  -0.00308   0.00105   0.00003   0.00003
           a4          -0.00006  -0.00308   0.00105   0.00003   0.00003
           t1           0.00000  -0.00000   0.00000   0.00000   0.00000
           t2          -0.00160   0.00071  -0.00384  -0.00058  -0.00058
           t3           0.00160  -0.00071   0.00384   0.00058   0.00058
                          a1        a2        a3        a4        t1
           a1           0.32052
           a2           0.15984   0.34258
           a3          -0.00022  -0.04257   0.19198
           a4          -0.00022  -0.04257   0.03219   0.19198
           t1          -0.00000  -0.00000  -0.00657   0.00657   0.00765
           t2          -0.00001   0.00240   0.05522   0.06059   0.00336
           t3           0.00001  -0.00240  -0.06059  -0.05522   0.00336
                          t2        t3
           t2           0.11865
           t3          -0.11394   0.11865
 ITU=  1  0
     Eigenvalues ---    0.00120   0.00959   0.01039   0.09623   0.16056
     Eigenvalues ---    0.18084   0.34279   0.50003   0.52833   0.54016
     Eigenvalues ---    0.54080   0.54449
 RFO step:  Lambda=-3.98942319D-05 EMin= 1.20133641D-03
 Quartic linear search produced a step of  0.08890.
 Variable       Old X    -DE/DX   Delta X   Delta X   Delta X     New X
                                 (Linear)    (Quad)   (Total)
    r1        1.81531  -0.00001  -0.00204   0.00178  -0.00026   1.81505
    r2        1.83002   0.00022   0.00061   0.00010   0.00071   1.83073
    r3        5.56490  -0.00059  -0.00458  -0.05864  -0.06323   5.50168
    r4        1.81905  -0.00015  -0.00067   0.00018  -0.00049   1.81855
    r5        1.81905  -0.00015  -0.00067   0.00018  -0.00049   1.81855
    a1        1.81741   0.00065  -0.00024   0.00308   0.00284   1.82025
    a2        0.08980   0.00025   0.00023   0.00020   0.00043   0.09023
    a3        1.90898  -0.00002   0.00021   0.00240   0.00261   1.91159
    a4        1.90898  -0.00002   0.00021   0.00240   0.00261   1.91159
    t1        3.14159   0.00000   0.00000   0.00000   0.00000   3.14159
    t2        2.15003  -0.00047  -0.00020  -0.00428  -0.00447   2.14556
    t3        4.13316   0.00047   0.00020   0.00428   0.00447   4.13763
         Item               Value     Threshold  Converged?
 Maximum Force            0.000647     0.000450     NO 
 RMS     Force            0.000338     0.000300     NO 
 Maximum Displacement     0.063225     0.001800     NO 
 RMS     Displacement     0.018395     0.001200     NO 
 Predicted change in Energy=-2.242122D-05
 GradGradGradGradGradGradGradGradGradGradGradGradGradGradGradGradGradGrad

 ---------------------------------------------------------------------------------------------------
                            Z-MATRIX (ANGSTROMS AND DEGREES)
   CD    Cent   Atom    N1       Length/X        N2       Alpha/Y        N3        Beta/Z          J
 ---------------------------------------------------------------------------------------------------
      1      1  H 
      2      2  O        1   0.960485(     1)
      3      3  H        2   0.968781(     2)      1  104.293(     6)
      4      4  O        2   2.911363(     3)      3    5.170(     7)      1  180.000(    10)      0
      5      5  H        4   0.962338(     4)      3  109.526(     8)      1  122.931(    11)      0
      6      6  H        4   0.962338(     5)      3  109.526(     9)      1  237.069(    12)      0
 ---------------------------------------------------------------------------------------------------
                         Z-Matrix orientation:                         
 ---------------------------------------------------------------------
 Center     Atomic      Atomic             Coordinates (Angstroms)
 Number     Number       Type             X           Y           Z
 ---------------------------------------------------------------------
      1          1           0        0.000000    0.000000    0.000000
      2          8           0        0.000000    0.000000    0.960485
      3          1           0        0.938795    0.000000    1.199654
      4          8           0        2.745004    0.000000    1.930528
      5          1           0        2.858217    0.761260    2.508248
      6          1           0        2.858217   -0.761260    2.508248
 ---------------------------------------------------------------------
                    Distance matrix (angstroms):
                    1          2          3          4          5
     1  H    0.000000
     2  O    0.960485   0.000000
     3  H    1.523320   0.968781   0.000000
     4  O    3.355889   2.911363   1.948479   0.000000
     5  H    3.878174   3.338337   2.444610   0.962338   0.000000
     6  H    3.878174   3.338337   2.444610   0.962338   1.522520
                    6
     6  H    0.000000
 Stoichiometry    H4O2
 Framework group  CS[SG(H2O2),X(H2)]
 Deg. of freedom     8
 Full point group                 CS      NOp   2
 Largest Abelian subgroup         CS      NOp   2
 Largest concise Abelian subgroup CS      NOp   2
                         Standard orientation:                         
 ---------------------------------------------------------------------
 Center     Atomic      Atomic             Coordinates (Angstroms)
 Number     Number       Type             X           Y           Z
 ---------------------------------------------------------------------
      1          1           0        0.906656    1.837872    0.000000
      2          8           0        0.001054    1.517846   -0.000000
      3          1           0        0.088350    0.553005   -0.000000
      4          8           0        0.001054   -1.393517    0.000000
      5          1           0       -0.505933   -1.692752    0.761260
      6          1           0       -0.505933   -1.692752   -0.761260
 ---------------------------------------------------------------------
 Rotational constants (GHZ):    213.8211098      6.4218865      6.4196550
 Standard basis: Aug-CC-pVTZ (5D, 7F)
 There are   135 symmetry adapted cartesian basis functions of A'  symmetry.
 There are    75 symmetry adapted cartesian basis functions of A"  symmetry.
 There are   115 symmetry adapted basis functions of A'  symmetry.
 There are    69 symmetry adapted basis functions of A"  symmetry.
   184 basis functions,   252 primitive gaussians,   210 cartesian basis functions
    10 alpha electrons       10 beta electrons
       nuclear repulsion energy        36.5796255609 Hartrees.
 NAtoms=    6 NActive=    6 NUniq=    5 SFac= 1.44D+00 NAtFMM=   60 NAOKFM=F Big=F
 Integral buffers will be    131072 words long.
 Raffenetti 1 integral format.
 Two-electron integral symmetry is turned on.
 One-electron integrals computed using PRISM.
 NBasis=   184 RedAO= T EigKep=  2.75D-04  NBF=   115    69
 NBsUse=   184 1.00D-06 EigRej= -1.00D+00 NBFU=   115    69
 Initial guess from the checkpoint file:  "water_dimer_freq.chk"
 B after Tr=    -0.000000    0.000000   -0.000000
         Rot=    1.000000    0.000000    0.000000    0.000165 Ang=   0.02 deg.
 Initial guess orbital symmetries:
       Occupied  (A') (A') (A') (A') (A") (A') (A') (A') (A') (A")
       Virtual   (A') (A') (A') (A') (A') (A') (A') (A') (A') (A')
                 (A') (A') (A') (A') (A') (A') (A') (A') (A') (A')
                 (A') (A') (A') (A') (A') (A') (A') (A') (A') (A')
                 (A') (A') (A') (A') (A') (A') (A') (A') (A') (A')
                 (A') (A') (A') (A') (A') (A') (A') (A') (A') (A')
                 (A') (A') (A') (A') (A') (A') (A') (A') (A') (A')
                 (A') (A') (A') (A') (A') (A') (A') (A') (A') (A')
                 (A') (A') (A') (A') (A') (A') (A') (A') (A') (A')
                 (A') (A') (A') (A') (A') (A') (A') (A') (A') (A')
                 (A') (A') (A') (A') (A') (A') (A') (A') (A') (A')
                 (A') (A') (A') (A') (A') (A') (A') (A") (A") (A")
                 (A") (A") (A") (A") (A") (A") (A") (A") (A") (A")
                 (A") (A") (A") (A") (A") (A") (A") (A") (A") (A")
                 (A") (A") (A") (A") (A") (A") (A") (A") (A") (A")
                 (A") (A") (A") (A") (A") (A") (A") (A") (A") (A")
                 (A") (A") (A") (A") (A") (A") (A") (A") (A") (A")
                 (A") (A") (A") (A") (A") (A") (A") (A") (A") (A")
                 (A") (A") (A") (A")
 ExpMin= 2.53D-02 ExpMax= 1.53D+04 ExpMxC= 5.22D+02 IAcc=3 IRadAn=         5 AccDes= 0.00D+00
 Harris functional with IExCor=  205 and IRadAn=       5 diagonalized for initial guess.
 HarFok:  IExCor=  205 AccDes= 0.00D+00 IRadAn=         5 IDoV= 1 UseB2=F ITyADJ=14
 ICtDFT=  3500011 ScaDFX=  1.000000  1.000000  1.000000  1.000000
 FoFCou: FMM=F IPFlag=           0 FMFlag=      100000 FMFlg1=           0
         NFxFlg=           0 DoJE=T BraDBF=F KetDBF=T FulRan=T
         wScrn=  0.000000 ICntrl=     500 IOpCl=  0 I1Cent=   200000004 NGrid=           0
         NMat0=    1 NMatS0=      1 NMatT0=    0 NMatD0=    1 NMtDS0=    0 NMtDT0=    0
 Petite list used in FoFCou.
 Requested convergence on RMS density matrix=1.00D-08 within 128 cycles.
 Requested convergence on MAX density matrix=1.00D-06.
 Requested convergence on             energy=1.00D-06.
 No special actions if energy rises.
 Initial convergence to 1.0D-05 achieved.  Increase integral accuracy.
 SCF Done:  E(RHF) =  -152.126064081     A.U. after    8 cycles
            NFock=  8  Conv=0.54D-08     -V/T= 2.0015
 ExpMin= 2.53D-02 ExpMax= 1.53D+04 ExpMxC= 5.22D+02 IAcc=3 IRadAn=         5 AccDes= 0.00D+00
 HarFok:  IExCor=  205 AccDes= 0.00D+00 IRadAn=         5 IDoV=-2 UseB2=F ITyADJ=14
 ICtDFT= 12500011 ScaDFX=  1.000000  1.000000  1.000000  1.000000
 Range of M.O.s used for correlation:     3   184
 NBasis=   184 NAE=    10 NBE=    10 NFC=     2 NFV=     0
 NROrb=    182 NOA=     8 NOB=     8 NVA=   174 NVB=   174

 **** Warning!!: The largest alpha MO coefficient is  0.20145346D+02

 Fully direct method using O(ONN) memory.
 JobTyp=1 Pass  1:  I=   3 to   3 NPSUse=  5 ParTrn=T ParDer=T DoDerP=T.
 JobTyp=1 Pass  2:  I=   4 to   4 NPSUse=  5 ParTrn=T ParDer=T DoDerP=T.
 JobTyp=1 Pass  3:  I=   5 to   5 NPSUse=  5 ParTrn=T ParDer=T DoDerP=T.
 JobTyp=1 Pass  4:  I=   6 to   6 NPSUse=  5 ParTrn=T ParDer=T DoDerP=T.
 JobTyp=1 Pass  5:  I=   7 to   7 NPSUse=  5 ParTrn=T ParDer=T DoDerP=T.
 JobTyp=1 Pass  6:  I=   8 to   8 NPSUse=  5 ParTrn=T ParDer=T DoDerP=T.
 JobTyp=1 Pass  7:  I=   9 to   9 NPSUse=  5 ParTrn=T ParDer=T DoDerP=T.
 JobTyp=1 Pass  8:  I=  10 to  10 NPSUse=  5 ParTrn=T ParDer=T DoDerP=T.
 Spin components of T(2) and E(2):
     alpha-alpha T2 =       0.1647722769D-01 E2=     -0.6592783545D-01
     alpha-beta  T2 =       0.9467067006D-01 E2=     -0.4083119014D+00
     beta-beta   T2 =       0.1647722769D-01 E2=     -0.6592783545D-01
 ANorm=    0.1061896947D+01
 E2 =    -0.5401675723D+00 EUMP2 =    -0.15266623165299D+03
          IDoAtm=111111
          Differentiating once with respect to electric field.
                with respect to dipole field.
          Differentiating once with respect to nuclear coordinates.
          There are     1 degrees of freedom in the 1st order CPHF.  IDoFFX=0 NUNeed=     1.
 LinEq1:  Iter=  0 NonCon=     1 RMS=3.35D-03 Max=4.70D-02 NDo=     1
 AX will form     1 AO Fock derivatives at one time.
 LinEq1:  Iter=  1 NonCon=     1 RMS=4.24D-04 Max=4.54D-03 NDo=     1
 LinEq1:  Iter=  2 NonCon=     1 RMS=1.37D-04 Max=1.62D-03 NDo=     1
 LinEq1:  Iter=  3 NonCon=     1 RMS=4.15D-05 Max=3.44D-04 NDo=     1
 LinEq1:  Iter=  4 NonCon=     1 RMS=5.55D-06 Max=4.08D-05 NDo=     1
 LinEq1:  Iter=  5 NonCon=     1 RMS=1.10D-06 Max=8.34D-06 NDo=     1
 LinEq1:  Iter=  6 NonCon=     1 RMS=2.44D-07 Max=2.48D-06 NDo=     1
 LinEq1:  Iter=  7 NonCon=     1 RMS=1.08D-07 Max=1.21D-06 NDo=     1
 LinEq1:  Iter=  8 NonCon=     1 RMS=1.54D-08 Max=1.08D-07 NDo=     1
 LinEq1:  Iter=  9 NonCon=     1 RMS=2.45D-09 Max=2.23D-08 NDo=     1
 LinEq1:  Iter= 10 NonCon=     1 RMS=4.98D-10 Max=3.83D-09 NDo=     1
 LinEq1:  Iter= 11 NonCon=     0 RMS=7.18D-11 Max=6.89D-10 NDo=     1
 Linear equations converged to 1.000D-10 1.000D-09 after    11 iterations.
 End of Minotr F.D. properties file   721 does not exist.
 End of Minotr F.D. properties file   722 does not exist.
 End of Minotr F.D. properties file   788 does not exist.
 Calling FoFJK, ICntrl=  10002127 FMM=F ISym2X=1 I1Cent= 0 IOpClX= 0 NMat=1 NMatS=1 NMatT=0.
 ***** Axes restored to original set *****
 -------------------------------------------------------------------
 Center     Atomic                   Forces (Hartrees/Bohr)
 Number     Number              X              Y              Z
 -------------------------------------------------------------------
      1        1          -0.000217047    0.000000000   -0.000023415
      2        8           0.000350428   -0.000000000   -0.000030019
      3        1          -0.000055119   -0.000000000   -0.000065514
      4        8          -0.000362074    0.000000000   -0.000043225
      5        1           0.000141906   -0.000089405    0.000081087
      6        1           0.000141906    0.000089405    0.000081087
 -------------------------------------------------------------------
 Cartesian Forces:  Max     0.000362074 RMS     0.000145500
 -----------------------------------------------------------------------------------------------
                       Internal Coordinate Forces (Hartree/Bohr or radian)
  Cent   Atom   N1       Length/X         N2         Alpha/Y        N3         Beta/Z          J
 -----------------------------------------------------------------------------------------------
      1  H 
      2  O        1   0.000023(     1)
      3  H        2  -0.000080(     2)      1   0.000394(     6)
      4  O        2  -0.000031(     3)      3   0.000350(     7)      1   0.000000(    10)     0
      5  H        4  -0.000005(     4)      3   0.000316(     8)      1   0.000115(    11)     0
      6  H        4  -0.000005(     5)      3   0.000316(     9)      1  -0.000115(    12)     0
 -----------------------------------------------------------------------------------------------
 Internal  Forces:  Max     0.000394019 RMS     0.000206466

 GradGradGradGradGradGradGradGradGradGradGradGradGradGradGradGradGradGrad
 Berny optimization.
 Search for a local minimum.
 Step number   3 out of a maximum of   22
 All quantities printed in internal units (Hartrees-Bohrs-Radians)
 Update second derivatives using D2CorN and points    1    2    3
 DE= -2.43D-05 DEPred=-2.24D-05 R= 1.08D+00
 TightC=F SS=  1.41D+00  RLast= 6.37D-02 DXNew= 5.0454D-01 1.9116D-01
 Trust test= 1.08D+00 RLast= 6.37D-02 DXMaxT set to 3.00D-01
 The second derivative matrix:
                          r1        r2        r3        r4        r5
           r1           0.52847
           r2           0.00070   0.54429
           r3          -0.00127   0.00161   0.01010
           r4          -0.00048   0.00040  -0.00185   0.54045
           r5          -0.00048   0.00040  -0.00185  -0.00034   0.54045
           a1           0.00283  -0.00077   0.00958   0.00090   0.00090
           a2           0.00122   0.00114   0.00533   0.00048   0.00048
           a3           0.00016  -0.00316   0.00407   0.00013   0.00013
           a4           0.00016  -0.00316   0.00407   0.00013   0.00013
           t1          -0.00000   0.00000   0.00000   0.00000   0.00000
           t2          -0.00166   0.00069  -0.00334  -0.00061  -0.00061
           t3           0.00166  -0.00069   0.00334   0.00061   0.00061
                          a1        a2        a3        a4        t1
           a1           0.32036
           a2           0.15967   0.34246
           a3          -0.00051  -0.04278   0.19173
           a4          -0.00051  -0.04278   0.03194   0.19173
           t1          -0.00000  -0.00000  -0.00657   0.00657   0.00765
           t2           0.00025   0.00265   0.05540   0.06077   0.00336
           t3          -0.00025  -0.00265  -0.06077  -0.05540   0.00336
                          t2        t3
           t2           0.11874
           t3          -0.11402   0.11874
 ITU=  1  1  0
     Eigenvalues ---    0.00120   0.00918   0.01039   0.09602   0.16056
     Eigenvalues ---    0.18084   0.34298   0.49985   0.52870   0.54013
     Eigenvalues ---    0.54080   0.54449
 RFO step:  Lambda=-1.91851668D-06 EMin= 1.20133641D-03
 Quartic linear search produced a step of  0.08727.
 Variable       Old X    -DE/DX   Delta X   Delta X   Delta X     New X
                                 (Linear)    (Quad)   (Total)
    r1        1.81505   0.00002  -0.00002   0.00004   0.00002   1.81507
    r2        1.83073  -0.00008   0.00006  -0.00017  -0.00011   1.83062
    r3        5.50168  -0.00003  -0.00552  -0.00067  -0.00619   5.49549
    r4        1.81855  -0.00001  -0.00004   0.00001  -0.00004   1.81852
    r5        1.81855  -0.00001  -0.00004   0.00001  -0.00004   1.81852
    a1        1.82025   0.00039   0.00025   0.00054   0.00079   1.82104
    a2        0.09023   0.00035   0.00004   0.00130   0.00133   0.09157
    a3        1.91159   0.00032   0.00023   0.00195   0.00217   1.91377
    a4        1.91159   0.00032   0.00023   0.00195   0.00217   1.91377
    t1        3.14159   0.00000   0.00000   0.00000   0.00000   3.14159
    t2        2.14556   0.00011  -0.00039  -0.00028  -0.00067   2.14489
    t3        4.13763  -0.00011   0.00039   0.00028   0.00067   4.13830
         Item               Value     Threshold  Converged?
 Maximum Force            0.000394     0.000450     YES
 RMS     Force            0.000206     0.000300     YES
 Maximum Displacement     0.006189     0.001800     NO 
 RMS     Displacement     0.002063     0.001200     NO 
 Predicted change in Energy=-1.085369D-06
 GradGradGradGradGradGradGradGradGradGradGradGradGradGradGradGradGradGrad

 ---------------------------------------------------------------------------------------------------
                            Z-MATRIX (ANGSTROMS AND DEGREES)
   CD    Cent   Atom    N1       Length/X        N2       Alpha/Y        N3        Beta/Z          J
 ---------------------------------------------------------------------------------------------------
      1      1  H 
      2      2  O        1   0.960494(     1)
      3      3  H        2   0.968724(     2)      1  104.338(     6)
      4      4  O        2   2.908088(     3)      3    5.246(     7)      1  180.000(    10)      0
      5      5  H        4   0.962319(     4)      3  109.651(     8)      1  122.893(    11)      0
      6      6  H        4   0.962319(     5)      3  109.651(     9)      1  237.107(    12)      0
 ---------------------------------------------------------------------------------------------------
                         Z-Matrix orientation:                         
 ---------------------------------------------------------------------
 Center     Atomic      Atomic             Coordinates (Angstroms)
 Number     Number       Type             X           Y           Z
 ---------------------------------------------------------------------
      1          1           0        0.000000    0.000000    0.000000
      2          8           0        0.000000    0.000000    0.960494
      3          1           0        0.938550    0.000000    1.200389
      4          8           0        2.739854    0.000000    1.935263
      5          1           0        2.853578    0.760986    2.513211
      6          1           0        2.853578   -0.760986    2.513211
 ---------------------------------------------------------------------
                    Distance matrix (angstroms):
                    1          2          3          4          5
     1  H    0.000000
     2  O    0.960494   0.000000
     3  H    1.523748   0.968724   0.000000
     4  O    3.354407   2.908088   1.945440   0.000000
     5  H    3.877917   3.336606   2.443345   0.962319   0.000000
     6  H    3.877917   3.336606   2.443345   0.962319   1.521973
                    6
     6  H    0.000000
 Stoichiometry    H4O2
 Framework group  CS[SG(H2O2),X(H2)]
 Deg. of freedom     8
 Full point group                 CS      NOp   2
 Largest Abelian subgroup         CS      NOp   2
 Largest concise Abelian subgroup CS      NOp   2
                         Standard orientation:                         
 ---------------------------------------------------------------------
 Center     Atomic      Atomic             Coordinates (Angstroms)
 Number     Number       Type             X           Y           Z
 ---------------------------------------------------------------------
      1          1           0        0.905894    1.838217    0.000000
      2          8           0        0.000964    1.516267    0.000000
      3          1           0        0.089542    0.551601    0.000000
      4          8           0        0.000964   -1.391821   -0.000000
      5          1           0       -0.505431   -1.692690    0.760986
      6          1           0       -0.505431   -1.692690   -0.760986
 ---------------------------------------------------------------------
 Rotational constants (GHZ):    214.1048854      6.4344531      6.4323320
 Standard basis: Aug-CC-pVTZ (5D, 7F)
 There are   135 symmetry adapted cartesian basis functions of A'  symmetry.
 There are    75 symmetry adapted cartesian basis functions of A"  symmetry.
 There are   115 symmetry adapted basis functions of A'  symmetry.
 There are    69 symmetry adapted basis functions of A"  symmetry.
   184 basis functions,   252 primitive gaussians,   210 cartesian basis functions
    10 alpha electrons       10 beta electrons
       nuclear repulsion energy        36.5986519228 Hartrees.
 NAtoms=    6 NActive=    6 NUniq=    5 SFac= 1.44D+00 NAtFMM=   60 NAOKFM=F Big=F
 Integral buffers will be    131072 words long.
 Raffenetti 1 integral format.
 Two-electron integral symmetry is turned on.
 One-electron integrals computed using PRISM.
 NBasis=   184 RedAO= T EigKep=  2.75D-04  NBF=   115    69
 NBsUse=   184 1.00D-06 EigRej= -1.00D+00 NBFU=   115    69
 Initial guess from the checkpoint file:  "water_dimer_freq.chk"
 B after Tr=    -0.000000    0.000000   -0.000000
         Rot=    1.000000   -0.000000   -0.000000   -0.000030 Ang=  -0.00 deg.
 Initial guess orbital symmetries:
       Occupied  (A') (A') (A') (A') (A") (A') (A') (A') (A') (A")
       Virtual   (A') (A') (A') (A') (A') (A') (A') (A') (A') (A')
                 (A') (A') (A') (A') (A') (A') (A') (A') (A') (A')
                 (A') (A') (A') (A') (A') (A') (A') (A') (A') (A')
                 (A') (A') (A') (A') (A') (A') (A') (A') (A') (A')
                 (A') (A') (A') (A') (A') (A') (A') (A') (A') (A')
                 (A') (A') (A') (A') (A') (A') (A') (A') (A') (A')
                 (A') (A') (A') (A') (A') (A') (A') (A') (A') (A')
                 (A') (A') (A') (A') (A') (A') (A') (A') (A') (A')
                 (A') (A') (A') (A') (A') (A') (A') (A') (A') (A')
                 (A') (A') (A') (A') (A') (A') (A') (A') (A') (A')
                 (A') (A') (A') (A') (A') (A') (A') (A") (A") (A")
                 (A") (A") (A") (A") (A") (A") (A") (A") (A") (A")
                 (A") (A") (A") (A") (A") (A") (A") (A") (A") (A")
                 (A") (A") (A") (A") (A") (A") (A") (A") (A") (A")
                 (A") (A") (A") (A") (A") (A") (A") (A") (A") (A")
                 (A") (A") (A") (A") (A") (A") (A") (A") (A") (A")
                 (A") (A") (A") (A") (A") (A") (A") (A") (A") (A")
                 (A") (A") (A") (A")
 Requested convergence on RMS density matrix=1.00D-08 within 128 cycles.
 Requested convergence on MAX density matrix=1.00D-06.
 Requested convergence on             energy=1.00D-06.
 No special actions if energy rises.
 SCF Done:  E(RHF) =  -152.126056975     A.U. after    7 cycles
            NFock=  7  Conv=0.44D-08     -V/T= 2.0015
 ExpMin= 2.53D-02 ExpMax= 1.53D+04 ExpMxC= 5.22D+02 IAcc=3 IRadAn=         5 AccDes= 0.00D+00
 HarFok:  IExCor=  205 AccDes= 0.00D+00 IRadAn=         5 IDoV=-2 UseB2=F ITyADJ=14
 ICtDFT= 12500011 ScaDFX=  1.000000  1.000000  1.000000  1.000000
 Range of M.O.s used for correlation:     3   184
 NBasis=   184 NAE=    10 NBE=    10 NFC=     2 NFV=     0
 NROrb=    182 NOA=     8 NOB=     8 NVA=   174 NVB=   174

 **** Warning!!: The largest alpha MO coefficient is  0.20138084D+02

 Fully direct method using O(ONN) memory.
 JobTyp=1 Pass  1:  I=   3 to   3 NPSUse=  5 ParTrn=T ParDer=T DoDerP=T.
 JobTyp=1 Pass  2:  I=   4 to   4 NPSUse=  5 ParTrn=T ParDer=T DoDerP=T.
 JobTyp=1 Pass  3:  I=   5 to   5 NPSUse=  5 ParTrn=T ParDer=T DoDerP=T.
 JobTyp=1 Pass  4:  I=   6 to   6 NPSUse=  5 ParTrn=T ParDer=T DoDerP=T.
 JobTyp=1 Pass  5:  I=   7 to   7 NPSUse=  5 ParTrn=T ParDer=T DoDerP=T.
 JobTyp=1 Pass  6:  I=   8 to   8 NPSUse=  5 ParTrn=T ParDer=T DoDerP=T.
 JobTyp=1 Pass  7:  I=   9 to   9 NPSUse=  5 ParTrn=T ParDer=T DoDerP=T.
 JobTyp=1 Pass  8:  I=  10 to  10 NPSUse=  5 ParTrn=T ParDer=T DoDerP=T.
 Spin components of T(2) and E(2):
     alpha-alpha T2 =       0.1647749676D-01 E2=     -0.6593111234D-01
     alpha-beta  T2 =       0.9466668738D-01 E2=     -0.4083143070D+00
     beta-beta   T2 =       0.1647749676D-01 E2=     -0.6593111234D-01
 ANorm=    0.1061895325D+01
 E2 =    -0.5401765317D+00 EUMP2 =    -0.15266623350639D+03
          IDoAtm=111111
          Differentiating once with respect to electric field.
                with respect to dipole field.
          Differentiating once with respect to nuclear coordinates.
          There are     1 degrees of freedom in the 1st order CPHF.  IDoFFX=0 NUNeed=     1.
 LinEq1:  Iter=  0 NonCon=     1 RMS=3.35D-03 Max=4.70D-02 NDo=     1
 AX will form     1 AO Fock derivatives at one time.
 LinEq1:  Iter=  1 NonCon=     1 RMS=4.24D-04 Max=4.54D-03 NDo=     1
 LinEq1:  Iter=  2 NonCon=     1 RMS=1.37D-04 Max=1.62D-03 NDo=     1
 LinEq1:  Iter=  3 NonCon=     1 RMS=4.15D-05 Max=3.45D-04 NDo=     1
 LinEq1:  Iter=  4 NonCon=     1 RMS=5.55D-06 Max=4.06D-05 NDo=     1
 LinEq1:  Iter=  5 NonCon=     1 RMS=1.10D-06 Max=8.32D-06 NDo=     1
 LinEq1:  Iter=  6 NonCon=     1 RMS=2.43D-07 Max=2.46D-06 NDo=     1
 LinEq1:  Iter=  7 NonCon=     1 RMS=1.07D-07 Max=1.20D-06 NDo=     1
 LinEq1:  Iter=  8 NonCon=     1 RMS=1.54D-08 Max=1.08D-07 NDo=     1
 LinEq1:  Iter=  9 NonCon=     1 RMS=2.48D-09 Max=2.24D-08 NDo=     1
 LinEq1:  Iter= 10 NonCon=     1 RMS=5.06D-10 Max=3.92D-09 NDo=     1
 LinEq1:  Iter= 11 NonCon=     0 RMS=7.24D-11 Max=6.85D-10 NDo=     1
 Linear equations converged to 1.000D-10 1.000D-09 after    11 iterations.
 End of Minotr F.D. properties file   721 does not exist.
 End of Minotr F.D. properties file   722 does not exist.
 End of Minotr F.D. properties file   788 does not exist.
 Calling FoFJK, ICntrl=  10002127 FMM=F ISym2X=1 I1Cent= 0 IOpClX= 0 NMat=1 NMatS=1 NMatT=0.
 ***** Axes restored to original set *****
 -------------------------------------------------------------------
 Center     Atomic                   Forces (Hartrees/Bohr)
 Number     Number              X              Y              Z
 -------------------------------------------------------------------
      1        1          -0.000169745    0.000000000    0.000011838
      2        8           0.000199084   -0.000000000   -0.000059654
      3        1          -0.000007647   -0.000000000   -0.000079219
      4        8          -0.000269309    0.000000000    0.000043824
      5        1           0.000123809   -0.000002838    0.000041605
      6        1           0.000123809    0.000002838    0.000041605
 -------------------------------------------------------------------
 Cartesian Forces:  Max     0.000269309 RMS     0.000101943
 -----------------------------------------------------------------------------------------------
                       Internal Coordinate Forces (Hartree/Bohr or radian)
  Cent   Atom   N1       Length/X         N2         Alpha/Y        N3         Beta/Z          J
 -----------------------------------------------------------------------------------------------
      1  H 
      2  O        1  -0.000012(     1)
      3  H        2  -0.000036(     2)      1   0.000308(     6)
      4  O        2   0.000025(     3)      3   0.000321(     7)      1   0.000000(    10)     0
      5  H        4   0.000037(     4)      3   0.000227(     8)      1  -0.000009(    11)     0
      6  H        4   0.000037(     5)      3   0.000227(     9)      1   0.000009(    12)     0
 -----------------------------------------------------------------------------------------------
 Internal  Forces:  Max     0.000320554 RMS     0.000159740

 GradGradGradGradGradGradGradGradGradGradGradGradGradGradGradGradGradGrad
 Berny optimization.
 Search for a local minimum.
 Step number   4 out of a maximum of   22
 All quantities printed in internal units (Hartrees-Bohrs-Radians)
 Update second derivatives using D2CorN and points    1    2    3    4
 DE= -1.85D-06 DEPred=-1.09D-06 R= 1.71D+00
 TightC=F SS=  1.41D+00  RLast= 7.15D-03 DXNew= 5.0454D-01 2.1438D-02
 Trust test= 1.71D+00 RLast= 7.15D-03 DXMaxT set to 3.00D-01
 The second derivative matrix:
                          r1        r2        r3        r4        r5
           r1           0.52857
           r2           0.00069   0.54420
           r3          -0.00182  -0.00109   0.01644
           r4          -0.00046   0.00042   0.00068   0.54049
           r5          -0.00046   0.00042   0.00068  -0.00031   0.54049
           a1           0.00325  -0.00028   0.03081   0.00085   0.00085
           a2           0.00157   0.00186   0.02703   0.00022   0.00022
           a3           0.00048  -0.00216   0.01908  -0.00052  -0.00052
           a4           0.00048  -0.00216   0.01908  -0.00052  -0.00052
           t1           0.00000   0.00000  -0.00000  -0.00000  -0.00000
           t2          -0.00186   0.00044  -0.00309  -0.00039  -0.00039
           t3           0.00186  -0.00044   0.00309   0.00039   0.00039
                          a1        a2        a3        a4        t1
           a1           0.31563
           a2           0.15326   0.33428
           a3          -0.00876  -0.05244   0.18209
           a4          -0.00876  -0.05244   0.02229   0.18209
           t1          -0.00000  -0.00000  -0.00657   0.00657   0.00765
           t2           0.00241   0.00496   0.05707   0.06244   0.00336
           t3          -0.00241  -0.00496  -0.06244  -0.05707   0.00336
                          t2        t3
           t2           0.11873
           t3          -0.11402   0.11873
 ITU=  1  1  1  0
     Eigenvalues ---    0.00120   0.00301   0.01039   0.08776   0.16056
     Eigenvalues ---    0.18042   0.33602   0.49578   0.52883   0.54017
     Eigenvalues ---    0.54080   0.54443
 RFO step:  Lambda=-2.11421059D-06 EMin= 1.20133641D-03
 Quartic linear search produced a step of  2.00000.
 Variable       Old X    -DE/DX   Delta X   Delta X   Delta X     New X
                                 (Linear)    (Quad)   (Total)
    r1        1.81507  -0.00001   0.00003  -0.00011  -0.00008   1.81499
    r2        1.83062  -0.00004  -0.00022   0.00011  -0.00011   1.83052
    r3        5.49549   0.00003  -0.01238   0.01194  -0.00043   5.49505
    r4        1.81852   0.00004  -0.00007   0.00021   0.00014   1.81866
    r5        1.81852   0.00004  -0.00007   0.00021   0.00014   1.81866
    a1        1.82104   0.00031   0.00158  -0.00076   0.00081   1.82185
    a2        0.09157   0.00032   0.00267   0.00000   0.00267   0.09424
    a3        1.91377   0.00023   0.00435  -0.00055   0.00380   1.91756
    a4        1.91377   0.00023   0.00435  -0.00055   0.00380   1.91756
    t1        3.14159   0.00000   0.00000  -0.00000   0.00000   3.14159
    t2        2.14489  -0.00001  -0.00134  -0.00065  -0.00199   2.14290
    t3        4.13830   0.00001   0.00134   0.00065   0.00199   4.14029
         Item               Value     Threshold  Converged?
 Maximum Force            0.000321     0.000450     YES
 RMS     Force            0.000160     0.000300     YES
 Maximum Displacement     0.003797     0.001800     NO 
 RMS     Displacement     0.001932     0.001200     NO 
 Predicted change in Energy=-4.558570D-07
 GradGradGradGradGradGradGradGradGradGradGradGradGradGradGradGradGradGrad

 ---------------------------------------------------------------------------------------------------
                            Z-MATRIX (ANGSTROMS AND DEGREES)
   CD    Cent   Atom    N1       Length/X        N2       Alpha/Y        N3        Beta/Z          J
 ---------------------------------------------------------------------------------------------------
      1      1  H 
      2      2  O        1   0.960453(     1)
      3      3  H        2   0.968668(     2)      1  104.384(     6)
      4      4  O        2   2.907858(     3)      3    5.399(     7)      1  180.000(    10)      0
      5      5  H        4   0.962393(     4)      3  109.868(     8)      1  122.779(    11)      0
      6      6  H        4   0.962393(     5)      3  109.868(     9)      1  237.221(    12)      0
 ---------------------------------------------------------------------------------------------------
                         Z-Matrix orientation:                         
 ---------------------------------------------------------------------
 Center     Atomic      Atomic             Coordinates (Angstroms)
 Number     Number       Type             X           Y           Z
 ---------------------------------------------------------------------
      1          1           0        0.000000    0.000000    0.000000
      2          8           0        0.000000    0.000000    0.960453
      3          1           0        0.938301    0.000000    1.201096
      4          8           0        2.736226    0.000000    1.944680
      5          1           0        2.851195    0.760984    2.522509
      6          1           0        2.851195   -0.760984    2.522509
 ---------------------------------------------------------------------
                    Distance matrix (angstroms):
                    1          2          3          4          5
     1  H    0.000000
     2  O    0.960453   0.000000
     3  H    1.524152   0.968668   0.000000
     4  O    3.356890   2.907858   1.945624   0.000000
     5  H    3.882198   3.338926   2.446302   0.962393   0.000000
     6  H    3.882198   3.338926   2.446302   0.962393   1.521968
                    6
     6  H    0.000000
 Stoichiometry    H4O2
 Framework group  CS[SG(H2O2),X(H2)]
 Deg. of freedom     8
 Full point group                 CS      NOp   2
 Largest Abelian subgroup         CS      NOp   2
 Largest concise Abelian subgroup CS      NOp   2
                         Standard orientation:                         
 ---------------------------------------------------------------------
 Center     Atomic      Atomic             Coordinates (Angstroms)
 Number     Number       Type             X           Y           Z
 ---------------------------------------------------------------------
      1          1           0        0.904499    1.841355    0.000000
      2          8           0        0.000735    1.516269    0.000000
      3          1           0        0.091884    0.551899    0.000000
      4          8           0        0.000735   -1.391588   -0.000000
      5          1           0       -0.504075   -1.695350    0.760984
      6          1           0       -0.504075   -1.695350   -0.760984
 ---------------------------------------------------------------------
 Rotational constants (GHZ):    214.5394013      6.4328415      6.4311115
 Standard basis: Aug-CC-pVTZ (5D, 7F)
 There are   135 symmetry adapted cartesian basis functions of A'  symmetry.
 There are    75 symmetry adapted cartesian basis functions of A"  symmetry.
 There are   115 symmetry adapted basis functions of A'  symmetry.
 There are    69 symmetry adapted basis functions of A"  symmetry.
   184 basis functions,   252 primitive gaussians,   210 cartesian basis functions
    10 alpha electrons       10 beta electrons
       nuclear repulsion energy        36.5955181124 Hartrees.
 NAtoms=    6 NActive=    6 NUniq=    5 SFac= 1.44D+00 NAtFMM=   60 NAOKFM=F Big=F
 Integral buffers will be    131072 words long.
 Raffenetti 1 integral format.
 Two-electron integral symmetry is turned on.
 One-electron integrals computed using PRISM.
 NBasis=   184 RedAO= T EigKep=  2.75D-04  NBF=   115    69
 NBsUse=   184 1.00D-06 EigRej= -1.00D+00 NBFU=   115    69
 Initial guess from the checkpoint file:  "water_dimer_freq.chk"
 B after Tr=    -0.000000    0.000000    0.000000
         Rot=    1.000000    0.000000    0.000000   -0.000130 Ang=  -0.01 deg.
 Initial guess orbital symmetries:
       Occupied  (A') (A') (A') (A') (A") (A') (A') (A') (A') (A")
       Virtual   (A') (A') (A') (A') (A') (A') (A') (A') (A') (A')
                 (A') (A') (A') (A') (A') (A') (A') (A') (A') (A')
                 (A') (A') (A') (A') (A') (A') (A') (A') (A') (A')
                 (A') (A') (A') (A') (A') (A') (A') (A') (A') (A')
                 (A') (A') (A') (A') (A') (A') (A') (A') (A') (A')
                 (A') (A') (A') (A') (A') (A') (A') (A') (A') (A')
                 (A') (A') (A') (A') (A') (A') (A') (A') (A') (A')
                 (A') (A') (A') (A') (A') (A') (A') (A') (A') (A')
                 (A') (A') (A') (A') (A') (A') (A') (A') (A') (A')
                 (A') (A') (A') (A') (A') (A') (A') (A') (A') (A')
                 (A') (A') (A') (A') (A') (A') (A') (A") (A") (A")
                 (A") (A") (A") (A") (A") (A") (A") (A") (A") (A")
                 (A") (A") (A") (A") (A") (A") (A") (A") (A") (A")
                 (A") (A") (A") (A") (A") (A") (A") (A") (A") (A")
                 (A") (A") (A") (A") (A") (A") (A") (A") (A") (A")
                 (A") (A") (A") (A") (A") (A") (A") (A") (A") (A")
                 (A") (A") (A") (A") (A") (A") (A") (A") (A") (A")
                 (A") (A") (A") (A")
 Requested convergence on RMS density matrix=1.00D-08 within 128 cycles.
 Requested convergence on MAX density matrix=1.00D-06.
 Requested convergence on             energy=1.00D-06.
 No special actions if energy rises.
 SCF Done:  E(RHF) =  -152.126063556     A.U. after    7 cycles
            NFock=  7  Conv=0.68D-08     -V/T= 2.0015
[...]
 023,-0.00034435,0.00059076,0.00000034,0.00037599,0.00276232,-0.0000287
 1,-0.19476912,-0.00017981,-0.00007066,-0.00010143,0.00041812,-0.000093
 26,-0.00011531,-0.00018759,0.00038127,0.00050534,-0.08394353,0.0741432
 6,-0.00139397,0.09330180,0.00007704,-0.00000688,0.00005960,0.00022842,
 0.00040723,0.00020539,-0.00033949,-0.00094629,-0.00032604,0.07731865,0
 .22954379,0.22956138,-0.07582130,-0.25108176,-0.00022025,0.00000079,-0
 .00014420,0.00042262,0.00001076,-0.00001133,-0.00011365,0.00013816,0.0
 0024562,-0.00119349,0.24849980,0.09733919,0.00405463,-0.23907434,-0.09
 091313,-0.00018025,0.00007087,-0.00010094,0.00041938,0.00009313,-0.000
 11534,-0.00018997,-0.00038137,0.00050372,-0.08394204,-0.07412650,-0.00
 140252,-0.00940899,-0.00146332,-0.00294985,0.09330187,-0.00007716,-0.0
 0000670,-0.00005929,-0.00022795,0.00040682,-0.00020547,0.00033923,-0.0
 0094526,0.00032633,-0.07730200,0.22951768,-0.22953338,0.00146069,0.022
 08392,-0.00957517,0.07580718,-0.25105644,-0.00022056,-0.00000103,-0.00
 014398,0.00042268,-0.00001067,-0.00001162,-0.00011502,-0.00013780,0.00
 024502,-0.00120278,-0.24847149,0.09732254,-0.00294925,0.00957400,-0.00
 651615,0.00406493,0.23904698,-0.09089582,0.03860658,0.,0.01450722,-0.0
 0364115,0.,-0.12606245,-0.03854059,0.,0.00193854,-0.05498880,0.,-0.013
 65658,0.,0.,0.02410340,-0.00183934,0.,0.12436704,-0.03079952,0.,-0.101
 53048,0.00013269,0.,0.00148958,0.09490513,0.,0.03310090,-0.09504073,0.
 ,-0.00091672,0.,0.,-0.01028332,0.,0.,0.01065936,0.00570963,0.,0.001557
 02,0.02942639,0.,-0.02267530,-0.03457665,0.,0.02162014,-0.00013612,0.,
 0.00007383,-0.00174855,0.,-0.00030504,-0.00015550,0.,-0.00073294,0.228
 40575,0.,0.00008023,0.,0.,-0.00053399,-0.00000001,-0.00000002,0.001298
 48,0.,0.00000003,-0.36856710,-0.00035442,0.,0.00010508,-0.00113720,0.,
 -0.00084088,0.00081937,0.,0.00140834,-0.09788014,-0.00000020,-0.225690
 53,-0.00003128,-0.00003048,0.00006959,0.00018640,-0.00021643,-0.000078
 50,0.00007921,0.00061828,0.00008679,-0.11318295,0.03376225,0.04927621,
 0.10392410,0.00002250,-0.00000707,0.00002388,-0.00005752,0.00018524,0.
 00006062,0.00016432,-0.00037890,-0.00018380,0.03005485,0.18386122,0.15
 041054,-0.03215890,-0.17554318,0.00006264,0.00006883,0.00001665,0.0002
 8589,0.00011362,0.00033980,-0.00041659,-0.00046873,-0.00095510,0.04942
 210,0.17087768,0.11250893,-0.04560662,-0.16045132,-0.10420348,-0.00003
 128,0.00003048,0.00006960,0.00018640,0.00021643,-0.00007850,0.00007921
 ,-0.00061828,0.00008678,-0.11318264,-0.03376226,0.04927615,0.00902451,
 0.00197476,-0.00374742,0.10392380,-0.00002250,-0.00000707,-0.00002389,
 0.00005752,0.00018524,-0.00006061,-0.00016430,-0.00037890,0.00018380,-
 0.03005488,0.18386116,-0.15041035,-0.00197472,-0.00811732,-0.01014008,
 0.03215887,-0.17554313,0.00006264,-0.00006883,0.00001666,0.00028590,-0
 .00011362,0.00033980,-0.00041662,0.00046873,-0.00095510,0.04942218,-0.
 17087747,0.11250907,-0.00374748,0.01014009,-0.00770681,-0.04560661,0.1
 6045111,-0.10420361,0.02346050,0.,0.00912358,-0.00317529,0.,-0.0769441
 3,-0.02343333,0.,0.00185170,-0.03597663,0.,-0.00854551,0.,0.,0.0156182
 3,-0.00089566,0.,0.07549748,-0.02167413,0.,-0.06142422,-0.00005053,0.,
 0.00135454,0.06172714,0.,0.02340842,-0.05922320,0.,-0.00053958,0.,0.,-
 0.00733920,0.,0.,0.00744867,0.00404346,0.,0.00135449,0.02080694,0.,-0.
 01391376,-0.02377873,0.,0.01250902,0.00019367,0.,-0.00009912,-0.001727
 40,0.,0.00006751,-0.00385205,0.,-0.00253199,0.18338766,0.,0.00001832,0
 .,-0.00000001,0.00004655,-0.00000001,0.,0.00066170,0.,-0.00000001,-0.2
 8822049,-0.00000916,0.,0.00001438,-0.00102859,0.,-0.00046921,-0.000782
 53,0.,0.00085448,-0.07610856,-0.00000002,-0.17732058,-0.00008515,-0.00
 001974,0.00003408,-0.00029490,-0.00014137,-0.00045306,0.00069932,0.000
 41553,0.00073016,-0.08900089,0.02660190,0.03896440,0.08137323,-0.00003
 882,-0.00002841,-0.00000325,0.00014785,0.00010997,0.00016064,-0.000286
 05,-0.00011579,-0.00016717,0.02361550,0.14374704,0.11776113,-0.0251473
 9,-0.13742255,0.00001833,-0.00002611,0.00003889,0.00002205,-0.00001640
 ,0.00015485,-0.00010086,0.00024940,-0.00040212,0.03933609,0.13348533,0
 .08846052,-0.03652727,-0.12572182,-0.08208276,-0.00008515,0.00001974,0
 .00003408,-0.00029490,0.00014137,-0.00045306,0.00069933,-0.00041553,0.
 00073017,-0.08900100,-0.02660189,0.03896442,0.00730839,0.00170892,-0.0
 0274832,0.08137333,0.00003881,-0.00002841,0.00000325,-0.00014784,0.000
 10996,-0.00016062,0.00028604,-0.00011580,0.00016716,-0.02361549,0.1437
 4686,-0.11776111,-0.00170892,-0.00629025,-0.00797040,0.02514739,-0.137
 42235,0.00001833,0.00002611,0.00003889,0.00002204,0.00001640,0.0001548
 4,-0.00010084,-0.00024940,-0.00040211,0.03933607,-0.13348531,0.0884604
 0,-0.00274831,0.00797047,-0.00616938,-0.03652728,0.12572171,-0.0820826
 3,0.17888929,0.,0.06821871,-0.01536588,0.,-0.58576312,-0.18057692,0.,0
 .00714985,-0.17631894,0.,-0.06393062,0.,0.,0.10337351,-0.00869523,0.,0
 .57986332,-0.12856075,0.,-0.49598161,0.00065427,0.,0.00747605,0.358246
 25,0.,0.13652170,-0.35921059,0.,-0.00420245,0.,0.,-0.03886046,0.,0.,0.
 04131687,0.02430893,0.,0.00500186,0.12037283,0.,-0.08285066,-0.1405739
 8,0.,0.07724985,0.00120770,0.,0.00031354,-0.00213792,0.,0.00185577,0.0
 0394151,0.,-0.00566014,0.13543020,0.,-0.00000783,0.,0.,-0.00102102,0.,
 0.,0.00241963,0.,0.00000003,-0.23383180,-0.00010544,0.,0.00077382,0.00
 070065,0.,-0.00072803,-0.00174125,0.,-0.00029748,-0.05797854,0.0000001
 0,-0.14266934,-0.00008717,-0.00010416,0.00021321,0.00039377,-0.0002609
 8,-0.00056073,-0.00181572,0.00074075,0.00077618,-0.06922078,0.01828374
 ,0.02956229,0.06529809,0.00008563,-0.00003891,0.00001035,-0.00029777,0
 .00021928,-0.00001157,-0.00013344,-0.00033680,-0.00030347,0.01751186,0
 .11622042,0.09569435,-0.01791282,-0.11105912,-0.00007118,-0.00006335,0
 .00006206,0.00016871,0.00013805,-0.00015153,-0.00084125,-0.00026840,0.
 00044822,0.03073467,0.10836740,0.07146050,-0.02796942,-0.10178170,-0.0
 6682126,-0.00008717,0.00010416,0.00021321,0.00039376,0.00026098,-0.000
 56073,-0.00181572,-0.00074075,0.00077618,-0.06922070,-0.01828375,0.029
 56228,0.00543181,0.00074654,-0.00202152,0.06529802,-0.00008562,-0.0000
 3891,-0.00001034,0.00029778,0.00021928,0.00001157,0.00013345,-0.000336
 80,0.00030347,-0.01751189,0.11622061,-0.09569445,-0.00074653,-0.005004
 87,-0.00639200,0.01791282,-0.11105931,-0.00007118,0.00006335,0.0000620
 6,0.00016871,-0.00013805,-0.00015152,-0.00084127,0.00026840,0.00044821
 ,0.03073470,-0.10836750,0.07146054,-0.00202153,0.00639205,-0.00499800,
 -0.02796942,0.10178175,-0.06682129,-0.03323123,-0.00000432,0.02243497,
 -0.01240059,0.00001633,0.00020622,0.03926021,0.00000140,0.01973424,-1.
 10139728,-0.00000029,-0.01927203,-0.00001337,0.00002401,0.40496441,-0.
 01603205,-0.00002203,-0.00990151,-0.29335604,0.00002907,0.04188375,-0.
 00588310,0.00000359,-0.00729693,1.06352918,-0.00002581,0.30942588,-1.0
 5328763,0.00000525,-0.00340971,-0.00000349,-0.00002423,-0.38380060,-0.
 00000585,0.00002059,0.37506572,0.02830740,0.00000655,0.00968408,0.2745
 6559,-0.00001649,-0.03154740,-0.29790710,0.00000855,0.02093945,-0.0004
 4822,0.,-0.00011111,-0.00157345,0.00000142,-0.00020331,-0.00060470,-0.
 00000264,-0.00387410,0.04518673,-0.00000008,0.00038376,-0.00000006,0.0
 0000004,-0.00221112,-0.00000063,-0.00000193,0.01294424,0.00000068,-0.0
 0001513,-0.12993014,-0.00007466,-0.00000028,0.00006201,-0.00053694,0.0
 0000121,-0.00059752,0.00030333,-0.00000070,0.00221677,-0.00207242,-0.0
 0002621,-0.05482787,0.00015168,0.00012646,0.00003723,0.00009135,-0.000
 88286,0.00008323,-0.00187826,0.00434309,-0.00054687,-0.02127750,0.0126
 5186,0.00119903,0.02576919,0.00012649,-0.00006867,0.00004977,-0.000347
 21,0.00015931,0.00012491,0.00007193,-0.00039829,-0.00032183,0.01758443
 ,0.05941776,0.05120054,-0.01684568,-0.06493922,0.00010013,0.00007843,-
 0.00002526,-0.00020335,-0.00056506,0.00008159,-0.00226188,0.00126905,-
 0.00064626,0.00314922,0.05385241,0.02657823,-0.00036334,-0.05284338,-0
 .02479375,0.00015066,-0.00012715,0.00003714,0.00009000,0.00088352,0.00
 008231,-0.00187549,-0.00434206,-0.00054492,-0.02128286,-0.01263475,0.0
 0118164,-0.00285645,-0.00058995,-0.00042078,0.02577414,-0.00012705,-0.
 00006831,-0.00004919,0.00034598,0.00016003,-0.00012548,-0.00006837,-0.
 00040135,0.00032255,-0.01756809,0.05939551,-0.05117458,0.00060712,0.00
 582910,-0.00179147,0.01681040,-0.06491499,0.00009977,-0.00007901,-0.00
 002555,-0.00020349,0.00056464,0.00008107,-0.00226330,-0.00126756,-0.00
 064662,0.00311170,-0.05382621,0.02656838,-0.00040928,0.00178998,-0.001
 19455,-0.00033538,0.05281816,-0.02478274,0.00393433,0.,0.00007750,0.00
 667666,0.,-0.03033454,-0.00173020,0.,-0.00389818,-0.03541308,0.,0.0000
 8257,0.,0.,-0.00035790,-0.01137717,0.,0.03171780,0.00664797,0.,-0.0279
 2134,-0.00227212,0.,-0.00278025,0.03784148,0.,0.00519290,-0.03559937,0
 .,-0.00015344,0.,0.00000001,0.00030010,0.,0.,-0.00020191,0.00482343,0.
 ,-0.00144146,-0.00235343,0.,-0.00332986,-0.00325065,0.,0.00412161,0.00
 021572,0.,-0.00001661,-0.00150882,0.,-0.00041178,0.00177949,0.,0.00164
 631,-0.00744231,0.,-0.00009066,0.,0.00000001,-0.00006340,0.00000002,-0
 .00000003,0.00089049,-0.00000002,0.00000010,-0.49207961,0.00011808,0.,
 0.00026985,-0.00082984,0.,-0.00035208,0.00317131,0.,0.00058700,-0.1458
 3436,-0.00000007,-0.65317907,-0.00007386,-0.00006834,0.00000919,0.0004
 0532,0.00009840,-0.00002596,-0.00087474,-0.00004820,-0.00043283,0.0034
 7798,0.09093735,0.07168741,-0.00136220,0.00005438,0.00004202,0.0000278
 8,0.00003729,0.00001932,0.00012769,-0.00002270,-0.00041761,-0.00003882
 ,0.06172396,0.24567150,0.28672557,-0.07635608,-0.23148666,-0.00012051,
 -0.00007868,-0.00010583,0.00021675,0.00016312,-0.00005727,-0.00116666,
 -0.00021749,0.00003136,0.07230818,0.42576280,0.32633716,-0.06064147,-0
 .35623597,-0.27860942,-0.00007386,0.00006834,0.00000919,0.00040532,-0.
 00009840,-0.00002595,-0.00087474,0.00004821,-0.00043283,0.00347792,-0.
 09093743,0.07168738,-0.00157249,0.01456315,-0.01059629,-0.00136215,-0.
 00005438,0.00004202,-0.00002787,-0.00003731,0.00001932,-0.00012771,0.0
 0002273,-0.00041762,0.00003885,-0.06172404,0.24567168,-0.28672549,-0.0
 1456313,-0.01382857,-0.06939378,0.07635613,-0.23148682,-0.00012050,0.0
 0007868,-0.00010582,0.00021674,-0.00016312,-0.00005727,-0.00116665,0.0
 0021750,0.00003136,0.07230825,-0.42576271,0.32633713,-0.01059634,0.069
 39365,-0.04759601,-0.06064149,0.35623601,-0.27860939,0.06666037,0.,0.0
 0320823,0.12136293,0.,-0.53408727,-0.02628616,0.00000001,-0.06755786,-
 0.66831137,0.,-0.00467963,0.,-0.00000002,0.02210169,-0.21055289,0.,0.5
 5964932,0.07311122,-0.00000001,-0.49331388,-0.04026988,0.,-0.05574145,
 0.69874556,0.00000002,0.14325819,-0.66503224,0.,0.00130986,0.,0.,-0.01
 689890,0.,0.,0.01484721,0.08869983,0.,-0.02608741,-0.00468000,0.,-0.06
 535690,-0.08570443,0.,0.09017880,-0.00021959,0.,0.00203047,-0.00438034
 ,0.,-0.00638051,0.00941403,0.,0.00160102,-0.00723940,0.,0.00014333,0.,
 0.,-0.00049597,0.,-0.00000002,0.00097917,0.,0.00000006,-0.02931933,0.0
 0049895,0.,0.00057723,-0.00107880,0.,-0.00072331,-0.00078117,0.,-0.000
 43013,-0.00702189,0.00000015,-0.03385089,0.00005763,-0.00001560,-0.000
 04705,0.00011615,-0.00009680,0.00028200,-0.00142874,0.00017557,0.00004
 178,0.00121271,0.00499299,0.00419144,-0.00000094,0.00000572,0.00000910
 ,-0.00028026,0.00012308,-0.00001360,0.00066631,-0.00088423,-0.00011867
 ,-0.00066351,0.00424094,0.01434642,0.01539638,-0.00427085,-0.01364311,
 -0.00000441,-0.00000023,-0.00002593,0.00010272,-0.00002691,-0.00012763
 ,-0.00051556,0.00042254,0.00084782,0.00488542,0.02215494,0.01721361,-0
 .00378346,-0.01883467,-0.01536984,0.00005763,0.00001560,-0.00004705,0.
 00011615,0.00009680,0.00028200,-0.00142873,-0.00017557,0.00004178,0.00
 121257,-0.00499303,0.00419145,0.00004319,0.00078535,-0.00068469,-0.000
 00081,-0.00000572,0.00000910,0.00028027,-0.00012307,-0.00001360,-0.000
 66630,0.00088424,-0.00011867,0.00066352,-0.00424100,0.01434636,-0.0153
 9653,-0.00078531,-0.00058012,-0.00371566,0.00427085,-0.01364307,-0.000
 00442,0.00000023,-0.00002594,0.00010272,0.00002692,-0.00012762,-0.0005
 1559,-0.00042254,0.00084782,0.00488548,-0.02215508,0.01721350,-0.00068
 471,0.00371575,-0.00253803,-0.00378349,0.01883472,-0.01536973,-0.11647
 501,0.,-0.13112418,0.05061641,0.,0.62156020,0.09191277,0.,-0.05917662,
 5.26997482,0.,0.10447464,0.,0.,-1.30808317,0.00381857,0.,-0.58574585,1
 .66888094,0.,-0.15286325,0.02762280,0.,0.00683040,-5.34799557,0.,-1.66
 520047,5.29146506,0.,0.02647908,0.,0.,1.20225845,0.,0.00000001,-1.2160
 6788,-0.05294632,0.,-0.03650204,-1.60228852,0.,0.74137884,1.63846463,0
 .,-0.70558118,-0.00237090,0.,0.00154365,-0.01088135,0.,-0.00644921,0.0
 1677011,0.,0.01591456,-0.00019464,0.,0.00013792,0.,0.,0.00187325,0.,0.
 ,-0.01451190,0.,0.00000002,0.05054603,-0.00134822,0.,0.00056024,-0.007
 62094,0.,-0.00276319,0.01729069,0.,0.00370097,-0.00045132,0.00000006,0
 .00836758,-0.00034483,-0.00004433,0.00009308,-0.00150535,0.00064830,-0
 .00052491,0.00606880,-0.00446967,0.00042782,-0.00166155,0.00311684,-0.
 00393512,-0.00339463,0.00009185,0.00001627,-0.00001279,0.00152291,-0.0
 0026160,0.00052952,-0.00560019,0.00092112,-0.00229473,0.00084796,-0.01
 902260,-0.01674701,0.00194316,0.01851114,-0.00007022,-0.00001230,0.000
 06373,0.00010258,0.00017791,-0.00000329,0.00130737,-0.00095491,-0.0014
 9829,-0.00527883,-0.01679103,-0.00493271,0.00358040,0.01805264,0.00516
 681,-0.00034483,0.00004433,0.00009307,-0.00150535,-0.00064830,-0.00052
 491,0.00606880,0.00446967,0.00042782,-0.00166168,-0.00311685,-0.003935
 11,0.00083757,0.00119432,0.00035872,-0.00339451,-0.00009185,0.00001627
 ,0.00001280,-0.00152290,-0.00026160,-0.00052952,0.00560019,0.00092112,
 0.00229472,-0.00084798,-0.01902271,0.01674694,-0.00119429,-0.00016433,
 -0.00047231,-0.00194317,0.01851125,-0.00007022,0.00001230,0.00006373,0
 .00010257,-0.00017791,-0.00000329,0.00130737,0.00095491,-0.00149829,-0
 .00527885,0.01679098,-0.00493286,0.00035874,0.00047236,0.00120375,0.00
 358041,-0.01805264,0.00516696,-0.00400093,0.,-0.00499533,0.00053220,0.
 ,0.02170101,0.00413275,0.,-0.00067516,0.03494313,0.,0.00471037,0.,0.,-
 0.01354034,0.00045439,0.,-0.02137605,0.01191857,0.,0.01613737,-0.00018
 692,0.,0.00016780,-0.04015872,0.,-0.01266109,0.04196785,0.,0.00029311,
 0.,0.,0.00917002,0.,0.,-0.01064846,-0.00091491,0.,-0.00032322,-0.01175
 237,0.,0.00535720,0.01336804,0.,-0.00534121,-0.00027545,0.,0.00005405,
 0.00114845,0.,-0.00039669,-0.00054879,0.,0.00091852,-1.21066254,0.,0.0
 0005016,0.,0.,-0.00003293,0.,0.,-0.00067552,0.,0.00000002,3.62617640,-
 0.00007579,0.,0.00004779,0.00058449,0.,0.00013432,-0.00022039,0.,-0.00
 043755,0.59695492,-0.00000017,1.52735081,0.00016527,0.00002803,-0.0000
 3945,-0.00003281,0.00003167,0.00034242,-0.00053670,-0.00030751,-0.0008
 0964,0.60516907,-0.39259046,-0.29862161,-0.63948973,-0.00004080,-0.000
 02915,0.00010616,-0.00060347,-0.00015357,-0.00030469,0.00125657,0.0009
 3043,0.00071660,-0.37570717,-1.81275913,-1.80454677,0.38396656,1.85408
 408,0.00000206,-0.00000349,-0.00002476,-0.00003777,-0.00000068,-0.0001
 2644,-0.00032717,0.00017602,0.00037239,-0.29876541,-1.89045909,-0.7635
 4773,0.29987655,1.84715798,0.73264374,0.00016527,-0.00002802,-0.000039
 45,-0.00003280,-0.00003167,0.00034242,-0.00053671,0.00030751,-0.000809
 64,0.60516924,0.39259045,-0.29862163,0.03472490,-0.00887169,-0.0007482
 5,-0.63948990,0.00004080,-0.00002915,-0.00010615,0.00060347,-0.0001535
 7,0.00030468,-0.00125658,0.00093043,-0.00071660,0.37570715,-1.81275900
 ,1.80454694,0.00887171,-0.04207266,0.04312926,-0.38396656,1.85408396,0
 .00000205,0.00000349,-0.00002476,-0.00003776,0.00000068,-0.00012643,-0
 .00032718,-0.00017603,0.00037240,-0.29876539,1.89045926,-0.76354766,-0
 .00074827,-0.04312928,0.03068279,0.29987656,-1.84715812,0.73264367,-1.
 26789867,0.,-1.34308955,-0.11770198,-0.00000004,6.20056592,1.28620970,
 0.,0.12344282,-0.66721569,0.,1.33868715,0.00000003,0.,-1.48311875,0.13
 799538,0.00000004,-6.22696072,0.02546102,-0.00000003,6.13473793,-0.015
 98722,0.,-0.00688382,-0.61867466,0.,-0.16186264,0.63004063,0.,0.004372
 37,0.,0.,0.14408416,0.,0.,-0.14629236,-0.01987333,0.,0.02606903,-0.147
 85105,0.,0.09296728,0.16548057,0.,-0.11923592,-0.00255046,0.,0.0012490
 7,0.00033583,0.,-0.00148280,0.00311917,0.,0.00209114,0.00067321,0.,-0.
 00021220,0.,-0.00000001,0.00067952,0.,0.,-0.00247350,0.,-0.00000002,0.
 00523893,-0.00033935,0.,0.00017151,-0.00102036,0.,-0.00050367,0.002761
 36,0.,0.00053125,-0.00011517,-0.00000004,0.00092297,0.00011332,-0.0000
 7096,-0.00005305,-0.00032758,0.00011899,-0.00005547,0.00075104,-0.0006
 1832,0.00007634,-0.00078895,0.00059322,-0.00064323,0.00014671,-0.00002
 644,0.00012111,-0.00013032,0.00031614,-0.00016604,0.00010068,-0.000736
 74,0.00015466,-0.00018806,0.00001169,-0.00161634,-0.00149942,0.0002062
 2,0.00150208,-0.00004036,-0.00007268,0.00007713,-0.00001621,0.00009182
 ,-0.00012042,0.00025227,-0.00019700,-0.00016582,-0.00087116,-0.0012786
 6,-0.00056106,0.00062614,0.00158679,0.00055080,0.00011332,0.00007096,-
 0.00005305,-0.00032759,-0.00011898,-0.00005547,0.00075103,0.00061832,0
 .00007633,-0.00078881,-0.00059318,-0.00064326,0.00010546,0.00022914,0.
 00004933,0.00014658,0.00002644,0.00012111,0.00013032,-0.00031613,-0.00
 016604,-0.00010068,0.00073675,0.00015466,0.00018806,-0.00001167,-0.001
 61640,0.00149946,-0.00022915,0.00000453,-0.00013028,-0.00020625,0.0015
 0213,-0.00004036,0.00007268,0.00007713,-0.00001621,-0.00009182,-0.0001
 2042,0.00025225,0.00019701,-0.00016583,-0.00087108,0.00127869,-0.00056
 099,0.00004928,0.00013033,0.00021936,0.00062613,-0.00158688,0.00055074
 ,-0.00009693,0.00000409,0.00009065,-0.00001423,-0.00003118,-0.00002145
 ,-0.00006700,-0.00000956,0.00001605,0.00033889,-0.00000029,-0.00015281
 ,0.00003723,0.00002196,0.00024891,-0.00015861,0.00002414,0.00009583,0.
 00003982,-0.00002982,-0.00017559,0.00018831,0.00000446,-0.00006444,-0.
 00019091,-0.00002266,0.00013733,-0.00060177,-0.00000369,0.00010776,-0.
 00000689,-0.00001255,-0.00019345,0.00000606,0.00001890,0.00010284,0.00
 010809,0.00000664,-0.00011931,-0.00003372,-0.00000919,-0.00011587,-0.0
 0013797,0.00000460,0.00061715,-0.00030825,0.00000045,0.00016632,0.0005
 2524,-0.00000109,-0.00066685,0.00080197,0.00000046,0.00135761,-1.36243
 578,0.00000035,-0.00010485,0.00000205,-0.00000514,0.00057021,-0.000000
 64,0.00001024,-0.00163970,-0.00000125,0.00000955,3.57376105,0.00024394
 ,-0.00000045,-0.00001650,0.00048925,-0.00000166,0.00090287,-0.00093879
 ,0.00000218,-0.00181680,0.68090120,0.00012921,1.74878573,0.00014156,0.
 00007318,-0.00005208,-0.00030379,0.00013080,0.00032303,-0.00009882,-0.
 00041358,-0.00064539,0.68070881,-0.41564091,-0.34035970,-0.67646828,-0
 .00008334,0.00003026,0.00004527,-0.00004783,-0.00023462,-0.00010709,0.
 00036549,0.00080746,0.00020494,-0.41734306,-1.78632870,-1.99604499,0.4
 1649661,1.78177956,-0.00008987,0.00005694,0.00003017,-0.00025483,-0.00
 041206,-0.00035363,0.00049969,0.00078848,0.00071775,-0.34091983,-1.992
 04518,-0.87397364,0.33861945,1.99374195,0.86755557,0.00014231,-0.00007
 262,-0.00005163,-0.00030245,-0.00012872,0.00032530,-0.00009878,0.00041
 046,-0.00064863,0.68070799,0.41562593,-0.34033593,-0.00397949,0.000612
 13,0.00214539,-0.67646959,0.00008288,0.00002898,-0.00004648,0.00005312
 ,-0.00023825,0.00010735,-0.00037642,0.00081509,-0.00020574,0.41733369,
 -1.78625803,1.99591570,-0.00064610,0.00394602,-0.00213015,-0.41644718,
 1.78170619,-0.00008932,-0.00005609,0.00003128,-0.00025656,0.00041549,-
 0.00035366,0.00050417,-0.00079444,0.00071708,-0.34083847,1.99191580,-0
 .87388165,0.00211468,0.00215993,0.00602378,0.33856550,-1.99364069,0.86
 746316\\@


 THIS CURIOUS WORLD WHICH WE INHABIT IS MORE WONDERFUL THAN IT IS CONVENIENT;
 MORE BEAUTIFUL THAN IT IS USEFUL;
 IT IS MORE TO BE ADMIRED THAN IT IS TO BE USED.

                                                                 -- THOREAU
 Job cpu time:       0 days 13 hours  1 minutes  8.5 seconds.
 File lengths (MBytes):  RWF=   3317 Int=      0 D2E=      0 Chk=     44 Scr=      1
 Normal termination of Gaussian 09 at Fri Nov 13 14:34:40 2020.
