title                                                                   
Freq      RMP2-FC                                                     Aug-CC-pVTZ         
Number of atoms                            I                5
Info1-9                                    I   N=           9
          39          24        1002           0           0         100
           6           2           1
Full Title                                 C   N=           1
title       
Route                                      C   N=           4
#p opt=(verytight) mp2/aug-cc-pvtz freq=anh     
Charge                                     I                0
Multiplicity                               I                1
Number of electrons                        I               10
Number of alpha electrons                  I                5
Number of beta electrons                   I                5
Number of basis functions                  I              138
Number of independent functions            I              138
Number of point charges in /Mol/           I                0
Number of translation vectors              I                0
Atomic numbers                             I   N=           5
           6           1           1           1           1
Nuclear charges                            R   N=           5
  6.00000000E+00  1.00000000E+00  1.00000000E+00  1.00000000E+00  1.00000000E+00
Current cartesian coordinates              R   N=          15
  0.00000000E+00  0.00000000E+00  0.00000000E+00  1.18505946E+00  1.18505946E+00
  1.18505946E+00 -1.18505946E+00 -1.18505946E+00  1.18505946E+00 -1.18505946E+00
  1.18505946E+00 -1.18505946E+00  1.18505946E+00 -1.18505946E+00 -1.18505946E+00
Number of symbols in /Mol/                 I                0
Force Field                                I                0
Atom Types                                 C   N=           5
                                                            
Int Atom Types                             I   N=           5
           0           0           0           0           0
MM charges                                 R   N=           5
  0.00000000E+00  0.00000000E+00  0.00000000E+00  0.00000000E+00  0.00000000E+00
Integer atomic weights                     I   N=           5
          12           1           1           1           1
Real atomic weights                        R   N=           5
  1.20000000E+01  1.00782504E+00  1.00782504E+00  1.00782504E+00  1.00782504E+00
Atom fragment info                         I   N=           5
           0           0           0           0           0
Atom residue num                           I   N=           5
           0           0           0           0           0
Nuclear spins                              I   N=           5
           0           1           1           1           1
Nuclear ZEff                               R   N=           5
 -3.60000000E+00 -1.00000000E+00 -1.00000000E+00 -1.00000000E+00 -1.00000000E+00
Nuclear ZNuc                               R   N=           5
  6.00000000E+00  1.00000000E+00  1.00000000E+00  1.00000000E+00  1.00000000E+00
Nuclear QMom                               R   N=           5
  0.00000000E+00  0.00000000E+00  0.00000000E+00  0.00000000E+00  0.00000000E+00
Nuclear GFac                               R   N=           5
  0.00000000E+00  2.79284600E+00  2.79284600E+00  2.79284600E+00  2.79284600E+00
MicOpt                                     I   N=           5
          -1          -1          -1          -1          -1
Number of residues                         I                0
Number of secondary structures             I                0
Redundant internal dimensions              I   N=           4
          14           4           6           4
Redundant internal coordinate indices      I   N=          56
           1           2           0           0           1           3
           0           0           1           4           0           0
           1           5           0           0           2           1
           3           0           2           1           4           0
           2           1           5           0           3           1
           4           0           3           1           5           0
           4           1           5           0           2           1
           4           3           2           1           5           3
           2           1           5           4           3           1
           5           4
Redundant internal coordinates             R   N=          14
  2.05258319E+00  2.05258319E+00  2.05258319E+00  2.05258319E+00  1.91063324E+00
  1.91063324E+00  1.91063324E+00  1.91063324E+00  1.91063324E+00  1.91063324E+00
 -2.09439510E+00  2.09439510E+00 -2.09439510E+00  2.09439510E+00
ZRed-IntVec                                I   N=          14
           0           0           0           0           0           0
           0           0           0           0           0           0
           0           0
ZRed-FPVec                                 R   N=          14
  0.00000000E+00  0.00000000E+00  0.00000000E+00  0.00000000E+00  0.00000000E+00
  0.00000000E+00  0.00000000E+00  0.00000000E+00  0.00000000E+00  0.00000000E+00
  0.00000000E+00  0.00000000E+00  0.00000000E+00  0.00000000E+00
ZRed-Constraint1                           R   N=          14
  2.05258319E+00  2.05258319E+00  2.05258319E+00  2.05258319E+00  1.91063324E+00
  1.91063324E+00  1.91063324E+00  1.91063324E+00  1.91063324E+00  1.91063324E+00
 -2.09439510E+00  2.09439510E+00 -2.09439510E+00  2.09439510E+00
ZRed-Constraint2                           R   N=          14
  2.05258319E+00  2.05258319E+00  2.05258319E+00  2.05258319E+00  1.91063324E+00
  1.91063324E+00  1.91063324E+00  1.91063324E+00  1.91063324E+00  1.91063324E+00
 -2.09439510E+00  2.09439510E+00 -2.09439510E+00  2.09439510E+00
SymInf integers                            I   N=          26
           4           4           1           1           1           1
          -1          -1          -1           1          -1          -1
          -1           1           0           0           0           0
           0           0           0           0           0           0
           0           0
RotTr to input orientation                 R   N=          12
 -4.08248290E-01  7.07106781E-01  5.77350269E-01 -4.08248290E-01 -7.07106781E-01
  5.77350269E-01  8.16496581E-01 -2.88444403E-16  5.77350269E-01  1.44328993E-16
 -2.22044605E-17 -1.22124533E-16
Number of contracted shells                I               50
Number of primitive shells                 I               71
Pure/Cartesian d shells                    I                0
Pure/Cartesian f shells                    I                0
Highest angular momentum                   I                3
Largest degree of contraction              I                7
Shell types                                I   N=          50
           0           0           0           0           0           1
           1           1           1          -2          -2          -2
          -3          -3           0           0           0           0
           1           1           1          -2          -2           0
           0           0           0           1           1           1
          -2          -2           0           0           0           0
           1           1           1          -2          -2           0
           0           0           0           1           1           1
          -2          -2
Number of primitives per shell             I   N=          50
           7           6           1           1           1           3
           1           1           1           1           1           1
           1           1           3           1           1           1
           1           1           1           1           1           3
           1           1           1           1           1           1
           1           1           3           1           1           1
           1           1           1           1           1           3
           1           1           1           1           1           1
           1           1
Shell to atom map                          I   N=          50
           1           1           1           1           1           1
           1           1           1           1           1           1
           1           1           2           2           2           2
           2           2           2           2           2           3
           3           3           3           3           3           3
           3           3           4           4           4           4
           4           4           4           4           4           5
           5           5           5           5           5           5
           5           5
Primitive exponents                        R   N=          71
  8.23600000E+03  1.23500000E+03  2.80800000E+02  7.92700000E+01  2.55900000E+01
  8.99700000E+00  3.31900000E+00  2.80800000E+02  7.92700000E+01  2.55900000E+01
  8.99700000E+00  3.31900000E+00  3.64300000E-01  9.05900000E-01  1.28500000E-01
  4.40200000E-02  1.87100000E+01  4.13300000E+00  1.20000000E+00  3.82700000E-01
  1.20900000E-01  3.56900000E-02  1.09700000E+00  3.18000000E-01  1.00000000E-01
  7.61000000E-01  2.68000000E-01  3.38700000E+01  5.09500000E+00  1.15900000E+00
  3.25800000E-01  1.02700000E-01  2.52600000E-02  1.40700000E+00  3.88000000E-01
  1.02000000E-01  1.05700000E+00  2.47000000E-01  3.38700000E+01  5.09500000E+00
  1.15900000E+00  3.25800000E-01  1.02700000E-01  2.52600000E-02  1.40700000E+00
  3.88000000E-01  1.02000000E-01  1.05700000E+00  2.47000000E-01  3.38700000E+01
  5.09500000E+00  1.15900000E+00  3.25800000E-01  1.02700000E-01  2.52600000E-02
  1.40700000E+00  3.88000000E-01  1.02000000E-01  1.05700000E+00  2.47000000E-01
  3.38700000E+01  5.09500000E+00  1.15900000E+00  3.25800000E-01  1.02700000E-01
  2.52600000E-02  1.40700000E+00  3.88000000E-01  1.02000000E-01  1.05700000E+00
  2.47000000E-01
Contraction coefficients                   R   N=          71
  5.41978320E-04  4.19287382E-03  2.15221621E-02  8.35343220E-02  2.39582846E-01
  4.42852842E-01  3.51799562E-01 -5.94922494E-05 -1.14815831E-03 -1.00191374E-02
 -6.12194923E-02 -1.73269854E-01  1.07291519E+00  1.00000000E+00  1.00000000E+00
  1.00000000E+00  3.94263872E-02  2.44088985E-01  8.15492009E-01  1.00000000E+00
  1.00000000E+00  1.00000000E+00  1.00000000E+00  1.00000000E+00  1.00000000E+00
  1.00000000E+00  1.00000000E+00  2.54948632E-02  1.90362766E-01  8.52162022E-01
  1.00000000E+00  1.00000000E+00  1.00000000E+00  1.00000000E+00  1.00000000E+00
  1.00000000E+00  1.00000000E+00  1.00000000E+00  2.54948632E-02  1.90362766E-01
  8.52162022E-01  1.00000000E+00  1.00000000E+00  1.00000000E+00  1.00000000E+00
  1.00000000E+00  1.00000000E+00  1.00000000E+00  1.00000000E+00  2.54948632E-02
  1.90362766E-01  8.52162022E-01  1.00000000E+00  1.00000000E+00  1.00000000E+00
  1.00000000E+00  1.00000000E+00  1.00000000E+00  1.00000000E+00  1.00000000E+00
  2.54948632E-02  1.90362766E-01  8.52162022E-01  1.00000000E+00  1.00000000E+00
  1.00000000E+00  1.00000000E+00  1.00000000E+00  1.00000000E+00  1.00000000E+00
  1.00000000E+00
Coordinates of each shell                  R   N=         150
  0.00000000E+00  0.00000000E+00  0.00000000E+00  0.00000000E+00  0.00000000E+00
  0.00000000E+00  0.00000000E+00  0.00000000E+00  0.00000000E+00  0.00000000E+00
  0.00000000E+00  0.00000000E+00  0.00000000E+00  0.00000000E+00  0.00000000E+00
  0.00000000E+00  0.00000000E+00  0.00000000E+00  0.00000000E+00  0.00000000E+00
  0.00000000E+00  0.00000000E+00  0.00000000E+00  0.00000000E+00  0.00000000E+00
  0.00000000E+00  0.00000000E+00  0.00000000E+00  0.00000000E+00  0.00000000E+00
  0.00000000E+00  0.00000000E+00  0.00000000E+00  0.00000000E+00  0.00000000E+00
  0.00000000E+00  0.00000000E+00  0.00000000E+00  0.00000000E+00  0.00000000E+00
  0.00000000E+00  0.00000000E+00  1.18505946E+00  1.18505946E+00  1.18505946E+00
  1.18505946E+00  1.18505946E+00  1.18505946E+00  1.18505946E+00  1.18505946E+00
  1.18505946E+00  1.18505946E+00  1.18505946E+00  1.18505946E+00  1.18505946E+00
  1.18505946E+00  1.18505946E+00  1.18505946E+00  1.18505946E+00  1.18505946E+00
  1.18505946E+00  1.18505946E+00  1.18505946E+00  1.18505946E+00  1.18505946E+00
  1.18505946E+00  1.18505946E+00  1.18505946E+00  1.18505946E+00 -1.18505946E+00
 -1.18505946E+00  1.18505946E+00 -1.18505946E+00 -1.18505946E+00  1.18505946E+00
 -1.18505946E+00 -1.18505946E+00  1.18505946E+00 -1.18505946E+00 -1.18505946E+00
  1.18505946E+00 -1.18505946E+00 -1.18505946E+00  1.18505946E+00 -1.18505946E+00
 -1.18505946E+00  1.18505946E+00 -1.18505946E+00 -1.18505946E+00  1.18505946E+00
 -1.18505946E+00 -1.18505946E+00  1.18505946E+00 -1.18505946E+00 -1.18505946E+00
  1.18505946E+00 -1.18505946E+00  1.18505946E+00 -1.18505946E+00 -1.18505946E+00
  1.18505946E+00 -1.18505946E+00 -1.18505946E+00  1.18505946E+00 -1.18505946E+00
 -1.18505946E+00  1.18505946E+00 -1.18505946E+00 -1.18505946E+00  1.18505946E+00
 -1.18505946E+00 -1.18505946E+00  1.18505946E+00 -1.18505946E+00 -1.18505946E+00
  1.18505946E+00 -1.18505946E+00 -1.18505946E+00  1.18505946E+00 -1.18505946E+00
 -1.18505946E+00  1.18505946E+00 -1.18505946E+00  1.18505946E+00 -1.18505946E+00
 -1.18505946E+00  1.18505946E+00 -1.18505946E+00 -1.18505946E+00  1.18505946E+00
 -1.18505946E+00 -1.18505946E+00  1.18505946E+00 -1.18505946E+00 -1.18505946E+00
  1.18505946E+00 -1.18505946E+00 -1.18505946E+00  1.18505946E+00 -1.18505946E+00
 -1.18505946E+00  1.18505946E+00 -1.18505946E+00 -1.18505946E+00  1.18505946E+00
 -1.18505946E+00 -1.18505946E+00  1.18505946E+00 -1.18505946E+00 -1.18505946E+00
Num ILSW                                   I              100
ILSW                                       I   N=         100
           0           0           0           1           2           0
           0           0           0           0           0          -1
           5           0           0           0           2           0
           0           0           0           0           1           0
           1           0           0           0           0           0
           0           0      100000           0          -1           0
           0           0           0           0           0           0
           0           0           0           1           1           0
           0 -2000000000           1           0           0           0
           0           0           4          52           0           0
           0           0           0           0           0           0
           0           0           0           5           4           1
           0           0           0           0           0           0
           0           0           0           0           0           0
           0           0           0           0           0           0
           0           0           0           0           0           0
           0           0           0           0
Num RLSW                                   I               52
RLSW                                       R   N=          52
  1.00000000E+00  1.00000000E+00  1.00000000E+00  1.00000000E+00  1.00000000E+00
  0.00000000E+00  0.00000000E+00  1.00000000E+00  0.00000000E+00  0.00000000E+00
  0.00000000E+00  0.00000000E+00  1.00000000E+00  0.00000000E+00  0.00000000E+00
  0.00000000E+00  0.00000000E+00  1.00000000E+00  0.00000000E+00  0.00000000E+00
  0.00000000E+00  0.00000000E+00  1.00000000E+00  0.00000000E+00  0.00000000E+00
  0.00000000E+00  0.00000000E+00  1.00000000E+00  0.00000000E+00  0.00000000E+00
  0.00000000E+00  0.00000000E+00  1.00000000E+00  0.00000000E+00  0.00000000E+00
  0.00000000E+00  0.00000000E+00  0.00000000E+00  1.00000000E+00  1.00000000E+00
  0.00000000E+00  1.00000000E+00  0.00000000E+00  0.00000000E+00  0.00000000E+00
  0.00000000E+00  0.00000000E+00  0.00000000E+00  0.00000000E+00  0.00000000E+00
  0.00000000E+00  0.00000000E+00
MxBond                                     I                4
NBond                                      I   N=           5
           4           1           1           1           1
IBond                                      I   N=          20
           2           3           4           5           1           0
           0           0           1           0           0           0
           1           0           0           0           1           0
           0           0
RBond                                      R   N=          20
  1.00000000E+00  1.00000000E+00  1.00000000E+00  1.00000000E+00  1.00000000E+00
  0.00000000E+00  0.00000000E+00  0.00000000E+00  1.00000000E+00  0.00000000E+00
  0.00000000E+00  0.00000000E+00  1.00000000E+00  0.00000000E+00  0.00000000E+00
  0.00000000E+00  1.00000000E+00  0.00000000E+00  0.00000000E+00  0.00000000E+00
Virial Ratio                               R      2.001078533659783E+00
SCF Energy                                 R     -4.021365778215743E+01
MP2 Energy                                 R     -4.041445913916801E+01
Total Energy                               R     -4.041445913916801E+01
Post-SCF wavefunction norm                 R      1.457140768913146E+00
RMS Force                                  R      2.679954511296340E-08
RMS Density                                R      6.605054570090167E-10
NImag                                      I                0
Job Status                                 I                1
Nuclear derivative order                   I                3
External E-field                           R   N=          35
  0.00000000E+00  0.00000000E+00  0.00000000E+00  0.00000000E+00  0.00000000E+00
  0.00000000E+00  0.00000000E+00  0.00000000E+00  0.00000000E+00  0.00000000E+00
  0.00000000E+00  0.00000000E+00  0.00000000E+00  0.00000000E+00  0.00000000E+00
  0.00000000E+00  0.00000000E+00  0.00000000E+00  0.00000000E+00  0.00000000E+00
  0.00000000E+00  0.00000000E+00  0.00000000E+00  0.00000000E+00  0.00000000E+00
  0.00000000E+00  0.00000000E+00  0.00000000E+00  0.00000000E+00  0.00000000E+00
  0.00000000E+00  0.00000000E+00  0.00000000E+00  0.00000000E+00  0.00000000E+00
IOpCl                                      I                0
IROHF                                      I                0
Alpha Orbital Energies                     R   N=         138
 -1.12053963E+01 -9.43961806E-01 -5.47361030E-01 -5.45473279E-01 -5.43621511E-01
  3.08063340E-02  5.03836626E-02  5.04542274E-02  5.05243408E-02  1.23887287E-01
  1.23981474E-01  1.24078045E-01  1.41930547E-01  2.23071292E-01  2.23074526E-01
  2.27980526E-01  2.28373255E-01  2.28760704E-01  3.29900004E-01  3.29910033E-01
  3.29925907E-01  3.37403863E-01  3.53980575E-01  3.54087957E-01  3.54197908E-01
  3.91999565E-01  3.92094428E-01  3.92193647E-01  4.01511478E-01  4.62288205E-01
  4.63173667E-01  4.64061565E-01  5.00678926E-01  5.00678990E-01  6.77814642E-01
  6.78362595E-01  6.78928940E-01  7.96618352E-01  8.31994642E-01  8.32066135E-01
  8.32104680E-01  8.93096507E-01  8.93440646E-01  8.93842810E-01  9.67840522E-01
  9.68471301E-01  9.68799967E-01  9.69615464E-01  9.69871434E-01  9.81042022E-01
  1.06999769E+00  1.07055812E+00  1.07108664E+00  1.08634515E+00  1.08698451E+00
  1.08767506E+00  1.11966482E+00  1.11967380E+00  1.21521419E+00  1.21522549E+00
  1.21522659E+00  1.26600066E+00  1.26603268E+00  1.31472546E+00  1.58976606E+00
  1.59035804E+00  1.59090731E+00  1.61921577E+00  1.62058089E+00  1.62192260E+00
  1.62769691E+00  1.73156327E+00  1.73177887E+00  1.73196904E+00  1.86485089E+00
  1.86685208E+00  1.86885491E+00  1.92786989E+00  1.92888010E+00  1.92999771E+00
  2.11721194E+00  2.11774793E+00  2.11883970E+00  2.24274414E+00  2.24281143E+00
  2.58917099E+00  2.90703638E+00  3.24842004E+00  3.25034829E+00  3.25169013E+00
  3.48727896E+00  3.48730663E+00  3.57282112E+00  3.57377260E+00  3.57415903E+00
  3.57799396E+00  3.57927535E+00  3.58216318E+00  3.90629071E+00  3.91156599E+00
  3.91685951E+00  4.05128065E+00  4.05517858E+00  4.05975148E+00  4.06919641E+00
  4.07176215E+00  4.07456329E+00  4.11819675E+00  4.11822458E+00  4.26673435E+00
  4.57601938E+00  4.57898118E+00  4.58170400E+00  4.76147056E+00  4.76188959E+00
  4.80398683E+00  4.80469592E+00  4.80495293E+00  4.85731103E+00  4.86110274E+00
  4.86493194E+00  5.19399338E+00  5.19657999E+00  5.19984487E+00  5.31270224E+00
  5.63531838E+00  5.64305083E+00  5.65096183E+00  5.82701482E+00  5.82796015E+00
  5.82838154E+00  6.22961495E+00  6.23839166E+00  6.24519703E+00  6.60648380E+00
  6.60686162E+00  6.60692670E+00  1.77380880E+01
Alpha MO coefficients                      R   N=       19044
  9.78867348E-01 -5.17654130E-03  4.19825355E-02  4.00179487E-03  8.48666566E-04
  0.00000000E+00  0.00000000E+00  0.00000000E+00  0.00000000E+00  0.00000000E+00
  0.00000000E+00  0.00000000E+00  0.00000000E+00  0.00000000E+00  0.00000000E+00
  0.00000000E+00  0.00000000E+00 -9.92076887E-16  0.00000000E+00  0.00000000E+00
  3.28572746E-17  0.00000000E+00  2.09235266E-14  0.00000000E+00  0.00000000E+00
 -1.74393442E-15  0.00000000E+00  3.26358253E-14  0.00000000E+00  0.00000000E+00
 -3.22989062E-15  0.00000000E+00  0.00000000E+00  0.00000000E+00  0.00000000E+00
  0.00000000E+00  1.07138595E-03  0.00000000E+00  0.00000000E+00  0.00000000E+00
  0.00000000E+00  0.00000000E+00  0.00000000E+00 -1.40583003E-03  0.00000000E+00
  0.00000000E+00  1.21823982E-04  1.28343684E-03 -1.38222016E-03 -9.92898893E-05
  1.73038495E-04  1.73038495E-04  1.73038495E-04  2.63063583E-04  2.63063583E-04
  2.63063583E-04  4.82197189E-04  4.82197189E-04  4.82197189E-04  7.20542544E-16
 -1.62569095E-04 -1.62569095E-04 -1.05089768E-16 -1.62569095E-04  2.86841914E-15
 -2.25404038E-04 -2.25404038E-04 -1.52563937E-16 -2.25404038E-04  1.21823982E-04
  1.28343684E-03 -1.38222016E-03 -9.92898893E-05 -1.73038495E-04 -1.73038495E-04
  1.73038495E-04 -2.63063583E-04 -2.63063583E-04  2.63063583E-04 -4.82197189E-04
 -4.82197189E-04  4.82197189E-04  7.20542544E-16  1.62569095E-04  1.62569095E-04
 -1.05089768E-16 -1.62569095E-04  2.86841914E-15  2.25404038E-04  2.25404038E-04
 -1.52563937E-16 -2.25404038E-04  1.21823982E-04  1.28343684E-03 -1.38222016E-03
 -9.92898893E-05 -1.73038495E-04  1.73038495E-04 -1.73038495E-04 -2.63063583E-04
  2.63063583E-04 -2.63063583E-04 -4.82197189E-04  4.82197189E-04 -4.82197189E-04
  7.20542544E-16 -1.62569095E-04  1.62569095E-04 -1.05089768E-16  1.62569095E-04
  2.86841914E-15 -2.25404038E-04  2.25404038E-04 -1.52563937E-16  2.25404038E-04
  1.21823982E-04  1.28343684E-03 -1.38222016E-03 -9.92898893E-05  1.73038495E-04
 -1.73038495E-04 -1.73038495E-04  2.63063583E-04 -2.63063583E-04 -2.63063583E-04
  4.82197189E-04 -4.82197189E-04 -4.82197189E-04  7.20542544E-16  1.62569095E-04
 -1.62569095E-04 -1.05089768E-16  1.62569095E-04  2.86841914E-15  2.25404038E-04
 -2.25404038E-04 -1.52563937E-16  2.25404038E-04 -1.77129771E-01  4.40889608E-01
  9.34092169E-02  2.13411080E-01 -5.84689463E-04  0.00000000E+00  0.00000000E+00
  0.00000000E+00  0.00000000E+00  0.00000000E+00  0.00000000E+00  0.00000000E+00
  0.00000000E+00  0.00000000E+00  0.00000000E+00  0.00000000E+00  0.00000000E+00
 -1.09093332E-16  0.00000000E+00  0.00000000E+00 -2.07906136E-16  0.00000000E+00
 -4.28915517E-14  0.00000000E+00  0.00000000E+00 -8.80640216E-15  0.00000000E+00
 -5.76075559E-13  0.00000000E+00  0.00000000E+00 -4.24830535E-14  0.00000000E+00
  0.00000000E+00  0.00000000E+00  0.00000000E+00  0.00000000E+00  7.30499535E-03
  0.00000000E+00  0.00000000E+00  0.00000000E+00  0.00000000E+00  0.00000000E+00
  0.00000000E+00  1.36513468E-03  0.00000000E+00  0.00000000E+00  8.24213267E-02
  9.50343289E-02  6.25514644E-03 -1.62602489E-04 -5.02331652E-03 -5.02331652E-03
 -5.02331652E-03 -1.42148489E-03 -1.42148489E-03 -1.42148489E-03  4.17493211E-03
  4.17493211E-03  4.17493212E-03 -1.14696183E-15  9.66380269E-04  9.66380269E-04
 -4.07404440E-16  9.66380269E-04 -3.88199340E-15 -2.79395898E-03 -2.79395898E-03
 -6.79132868E-16 -2.79395898E-03  8.24213267E-02  9.50343289E-02  6.25514644E-03
 -1.62602489E-04  5.02331652E-03  5.02331652E-03 -5.02331652E-03  1.42148489E-03
  1.42148489E-03 -1.42148489E-03 -4.17493211E-03 -4.17493211E-03  4.17493212E-03
 -1.14696183E-15 -9.66380269E-04 -9.66380269E-04 -4.07404440E-16  9.66380269E-04
 -3.88199340E-15  2.79395898E-03  2.79395898E-03 -6.79132868E-16 -2.79395898E-03
  8.24213267E-02  9.50343289E-02  6.25514644E-03 -1.62602489E-04  5.02331652E-03
 -5.02331652E-03  5.02331652E-03  1.42148489E-03 -1.42148489E-03  1.42148489E-03
 -4.17493211E-03  4.17493211E-03 -4.17493212E-03 -1.14696183E-15  9.66380269E-04
 -9.66380269E-04 -4.07404440E-16 -9.66380269E-04 -3.88199340E-15 -2.79395898E-03
  2.79395898E-03 -6.79132868E-16  2.79395898E-03  8.24213267E-02  9.50343289E-02
  6.25514644E-03 -1.62602489E-04 -5.02331652E-03  5.02331652E-03  5.02331652E-03
 -1.42148489E-03  1.42148489E-03  1.42148489E-03  4.17493211E-03 -4.17493211E-03
 -4.17493212E-03 -1.14696183E-15 -9.66380269E-04  9.66380269E-04 -4.07404440E-16
 -9.66380269E-04 -3.88199340E-15  2.79395898E-03 -2.79395898E-03 -6.79132868E-16
  2.79395898E-03  0.00000000E+00  0.00000000E+00  0.00000000E+00  0.00000000E+00
  0.00000000E+00  0.00000000E+00  0.00000000E+00  2.34624590E-01  0.00000000E+00
  0.00000000E+00  3.09380767E-01  0.00000000E+00  0.00000000E+00  2.48779245E-01
  0.00000000E+00  0.00000000E+00  1.82139233E-02  0.00000000E+00  0.00000000E+00
  0.00000000E+00  0.00000000E+00  1.84895897E-02  0.00000000E+00  0.00000000E+00
  0.00000000E+00  0.00000000E+00  4.47426418E-02  0.00000000E+00  0.00000000E+00
  0.00000000E+00  0.00000000E+00  2.89209527E-02 -1.60667634E-03  0.00000000E+00
  0.00000000E+00 -9.73309523E-16  0.00000000E+00  0.00000000E+00  0.00000000E+00
 -6.57195459E-03  0.00000000E+00  0.00000000E+00 -7.88768060E-15  0.00000000E+00
  0.00000000E+00  0.00000000E+00  1.01413569E-01  1.27892722E-01 -2.59562609E-02
 -9.36092156E-03 -6.38574165E-03 -6.38574165E-03 -1.49250599E-03 -3.61480410E-03
 -3.61480410E-03  9.37971411E-03  1.09658625E-02  1.09658625E-02  1.06837614E-02
 -1.41979188E-03  6.08700764E-04  6.08700764E-04 -5.08019356E-16  1.81565890E-03
 -6.44467061E-04 -1.27957873E-03 -1.27957873E-03 -2.56102498E-15 -5.27617089E-05
  1.01413569E-01  1.27892722E-01 -2.59562609E-02 -9.36092156E-03  6.38574165E-03
  6.38574165E-03 -1.49250599E-03  3.61480410E-03  3.61480410E-03  9.37971411E-03
 -1.09658625E-02 -1.09658625E-02  1.06837614E-02 -1.41979188E-03 -6.08700764E-04
 -6.08700764E-04 -5.08019356E-16  1.81565890E-03 -6.44467061E-04  1.27957873E-03
  1.27957873E-03 -2.56102498E-15 -5.27617089E-05 -1.01413569E-01 -1.27892722E-01
  2.59562609E-02  9.36092156E-03 -6.38574165E-03  6.38574165E-03 -1.49250599E-03
 -3.61480410E-03  3.61480410E-03  9.37971411E-03  1.09658625E-02 -1.09658625E-02
  1.06837614E-02  1.41979188E-03 -6.08700764E-04  6.08700764E-04  5.08019356E-16
  1.81565890E-03  6.44467061E-04  1.27957873E-03 -1.27957873E-03  2.56102498E-15
 -5.27617089E-05 -1.01413569E-01 -1.27892722E-01  2.59562609E-02  9.36092156E-03
  6.38574165E-03 -6.38574165E-03 -1.49250599E-03  3.61480410E-03 -3.61480410E-03
  9.37971411E-03 -1.09658625E-02  1.09658625E-02  1.06837614E-02  1.41979188E-03
  6.08700764E-04 -6.08700764E-04  5.08019356E-16  1.81565890E-03  6.44467061E-04
 -1.27957873E-03  1.27957873E-03  2.56102498E-15 -5.27617089E-05  0.00000000E+00
  0.00000000E+00  0.00000000E+00  0.00000000E+00  0.00000000E+00  0.00000000E+00
  2.34624590E-01  0.00000000E+00  0.00000000E+00  3.09380767E-01  0.00000000E+00
  0.00000000E+00  2.48779245E-01  0.00000000E+00  0.00000000E+00  1.82139233E-02
  0.00000000E+00  0.00000000E+00  1.84895897E-02  0.00000000E+00  0.00000000E+00
  0.00000000E+00  0.00000000E+00  4.47426418E-02  0.00000000E+00  0.00000000E+00
  0.00000000E+00  0.00000000E+00  2.89209527E-02  0.00000000E+00  0.00000000E+00
  0.00000000E+00  0.00000000E+00  0.00000000E+00  9.83884304E-04  0.00000000E+00
  0.00000000E+00  0.00000000E+00  1.27018917E-03  0.00000000E+00  0.00000000E+00
  4.02448384E-03  0.00000000E+00  0.00000000E+00  0.00000000E+00  5.19558629E-03
  1.01413569E-01  1.27892722E-01 -2.59562609E-02 -9.36092156E-03 -6.38574165E-03
 -1.49250599E-03 -6.38574165E-03 -3.61480410E-03  9.37971411E-03 -3.61480410E-03
  1.09658625E-02  1.06837614E-02  1.09658625E-02  7.09895939E-04  1.81565890E-03
  6.08700764E-04  1.22957583E-03  6.08700764E-04  3.22233531E-04 -5.27617089E-05
 -1.27957873E-03  5.58124847E-04 -1.27957873E-03 -1.01413569E-01 -1.27892722E-01
  2.59562609E-02  9.36092156E-03 -6.38574165E-03 -1.49250599E-03  6.38574165E-03
 -3.61480410E-03  9.37971411E-03  3.61480410E-03  1.09658625E-02  1.06837614E-02
 -1.09658625E-02 -7.09895939E-04  1.81565890E-03  6.08700764E-04 -1.22957583E-03
 -6.08700764E-04 -3.22233531E-04 -5.27617089E-05 -1.27957873E-03 -5.58124847E-04
  1.27957873E-03  1.01413569E-01  1.27892722E-01 -2.59562609E-02 -9.36092156E-03
  6.38574165E-03 -1.49250599E-03  6.38574165E-03  3.61480410E-03  9.37971411E-03
  3.61480410E-03 -1.09658625E-02  1.06837614E-02 -1.09658625E-02  7.09895939E-04
  1.81565890E-03 -6.08700764E-04  1.22957583E-03 -6.08700764E-04  3.22233531E-04
 -5.27617089E-05  1.27957873E-03  5.58124847E-04  1.27957873E-03 -1.01413569E-01
 -1.27892722E-01  2.59562609E-02  9.36092156E-03  6.38574165E-03 -1.49250599E-03
 -6.38574165E-03  3.61480410E-03  9.37971411E-03 -3.61480410E-03 -1.09658625E-02
  1.06837614E-02  1.09658625E-02 -7.09895939E-04  1.81565890E-03 -6.08700764E-04
 -1.22957583E-03  6.08700764E-04 -3.22233531E-04 -5.27617089E-05  1.27957873E-03
 -5.58124847E-04 -1.27957873E-03  0.00000000E+00  0.00000000E+00  0.00000000E+00
  0.00000000E+00  0.00000000E+00  2.34624590E-01  0.00000000E+00  0.00000000E+00