title                                                                   
Freq      RMP2-FC                                                     Aug-CC-pVTZ         
Number of atoms                            I                4
Info1-9                                    I   N=           9
          26          20        1002           0           0         100
           6           2           1
Full Title                                 C   N=           1
title       
Route                                      C   N=           4
#p opt=(verytight) mp2/aug-cc-pvtz freq=anh     
Charge                                     I                0
Multiplicity                               I                1
Number of electrons                        I               16
Number of alpha electrons                  I                8
Number of beta electrons                   I                8
Number of basis functions                  I              138
Number of independent functions            I              138
Number of point charges in /Mol/           I                0
Number of translation vectors              I                0
Atomic numbers                             I   N=           4
           6           8           1           1
Nuclear charges                            R   N=           4
  6.00000000E+00  8.00000000E+00  1.00000000E+00  1.00000000E+00
Current cartesian coordinates              R   N=          12
  2.72077655E-31  2.65167448E-31 -1.00944347E+00 -7.20838023E-32 -1.73801930E-31
  1.28259033E+00 -4.73045421E-31  1.76881018E+00 -2.10203091E+00 -2.16616773E-16
 -1.76881018E+00 -2.10203091E+00
Number of symbols in /Mol/                 I                0
Force Field                                I                0
Atom Types                                 C   N=           4
                                                
Int Atom Types                             I   N=           4
           0           0           0           0
MM charges                                 R   N=           4
  0.00000000E+00  0.00000000E+00  0.00000000E+00  0.00000000E+00
Integer atomic weights                     I   N=           4
          12          16           1           1
Real atomic weights                        R   N=           4
  1.20000000E+01  1.59949146E+01  1.00782504E+00  1.00782504E+00
Atom fragment info                         I   N=           4
           0           0           0           0
Atom residue num                           I   N=           4
           0           0           0           0
Nuclear spins                              I   N=           4
           0           0           1           1
Nuclear ZEff                               R   N=           4
 -3.60000000E+00 -5.60000000E+00 -1.00000000E+00 -1.00000000E+00
Nuclear ZNuc                               R   N=           4
  6.00000000E+00  8.00000000E+00  1.00000000E+00  1.00000000E+00
Nuclear QMom                               R   N=           4
  0.00000000E+00  0.00000000E+00  0.00000000E+00  0.00000000E+00
Nuclear GFac                               R   N=           4
  0.00000000E+00  0.00000000E+00  2.79284600E+00  2.79284600E+00
MicOpt                                     I   N=           4
          -1          -1          -1          -1
Number of residues                         I                0
Number of secondary structures             I                0
Redundant internal dimensions              I   N=           4
           7           3           3           1
Redundant internal coordinate indices      I   N=          28
           1           2           0           0           1           3
           0           0           1           4           0           0
           2           1           3           0           2           1
           4           0           3           1           4           0
           2           1           4           3
Redundant internal coordinates             R   N=           7
  2.29203379E+00  2.07904708E+00  2.07904708E+00  2.12412627E+00  2.12412627E+00
  2.03493277E+00  3.14159265E+00
ZRed-IntVec                                I   N=           7
           0           0           0           0           0           0
           0
ZRed-FPVec                                 R   N=           7
  0.00000000E+00  0.00000000E+00  0.00000000E+00  0.00000000E+00  0.00000000E+00
  0.00000000E+00  0.00000000E+00
ZRed-Constraint1                           R   N=           7
  2.29203379E+00  2.07904708E+00  2.07904708E+00  2.12412627E+00  2.12412627E+00
  2.03493277E+00  3.14159265E+00
ZRed-Constraint2                           R   N=           7
  1.92752065E+00  1.85193160E+00  1.85193160E+00  2.09439510E+00  2.09439510E+00
  2.09439510E+00  3.14159265E+00
SymInf integers                            I   N=          26
           2           4           1           1           1          -1
          -1           1          -1           1           1           1
          -1           1           0           0           0           0
           0           0           0           0           0           0
           0           0
RotTr to input orientation                 R   N=          12
 -2.08703589E-15 -1.00000000E+00  5.99122735E-16  1.00000000E+00 -2.08703589E-15
 -7.86198313E-16  7.86198313E-16  5.99122735E-16  1.00000000E+00 -4.16333634E-17
  1.71191382E-16  1.00162600E+00
Number of contracted shells                I               46
Number of primitive shells                 I               76
Pure/Cartesian d shells                    I                0
Pure/Cartesian f shells                    I                0
Highest angular momentum                   I                3
Largest degree of contraction              I                7
Shell types                                I   N=          46
           0           0           0           0           0           1
           1           1           1          -2          -2          -2
          -3          -3           0           0           0           0
           0           1           1           1           1          -2
          -2          -2          -3          -3           0           0
           0           0           1           1           1          -2
          -2           0           0           0           0           1
           1           1          -2          -2
Number of primitives per shell             I   N=          46
           7           6           1           1           1           3
           1           1           1           1           1           1
           1           1           7           6           1           1
           1           3           1           1           1           1
           1           1           1           1           3           1
           1           1           1           1           1           1
           1           3           1           1           1           1
           1           1           1           1
Shell to atom map                          I   N=          46
           1           1           1           1           1           1
           1           1           1           1           1           1
           1           1           2           2           2           2
           2           2           2           2           2           2
           2           2           2           2           3           3
           3           3           3           3           3           3
           3           4           4           4           4           4
           4           4           4           4
Primitive exponents                        R   N=          76
  8.23600000E+03  1.23500000E+03  2.80800000E+02  7.92700000E+01  2.55900000E+01
  8.99700000E+00  3.31900000E+00  2.80800000E+02  7.92700000E+01  2.55900000E+01
  8.99700000E+00  3.31900000E+00  3.64300000E-01  9.05900000E-01  1.28500000E-01
  4.40200000E-02  1.87100000E+01  4.13300000E+00  1.20000000E+00  3.82700000E-01
  1.20900000E-01  3.56900000E-02  1.09700000E+00  3.18000000E-01  1.00000000E-01
  7.61000000E-01  2.68000000E-01  1.53300000E+04  2.29900000E+03  5.22400000E+02
  1.47300000E+02  4.75500000E+01  1.67600000E+01  6.20700000E+00  5.22400000E+02
  1.47300000E+02  4.75500000E+01  1.67600000E+01  6.20700000E+00  6.88200000E-01
  1.75200000E+00  2.38400000E-01  7.37600000E-02  3.44600000E+01  7.74900000E+00
  2.28000000E+00  7.15600000E-01  2.14000000E-01  5.97400000E-02  2.31400000E+00
  6.45000000E-01  2.14000000E-01  1.42800000E+00  5.00000000E-01  3.38700000E+01
  5.09500000E+00  1.15900000E+00  3.25800000E-01  1.02700000E-01  2.52600000E-02
  1.40700000E+00  3.88000000E-01  1.02000000E-01  1.05700000E+00  2.47000000E-01
  3.38700000E+01  5.09500000E+00  1.15900000E+00  3.25800000E-01  1.02700000E-01
  2.52600000E-02  1.40700000E+00  3.88000000E-01  1.02000000E-01  1.05700000E+00
  2.47000000E-01
Contraction coefficients                   R   N=          76
  5.41978320E-04  4.19287382E-03  2.15221621E-02  8.35343220E-02  2.39582846E-01
  4.42852842E-01  3.51799562E-01 -5.94922494E-05 -1.14815831E-03 -1.00191374E-02
 -6.12194923E-02 -1.73269854E-01  1.07291519E+00  1.00000000E+00  1.00000000E+00
  1.00000000E+00  3.94263872E-02  2.44088985E-01  8.15492009E-01  1.00000000E+00
  1.00000000E+00  1.00000000E+00  1.00000000E+00  1.00000000E+00  1.00000000E+00
  1.00000000E+00  1.00000000E+00  5.19808943E-04  4.02025621E-03  2.07128267E-02
  8.10105536E-02  2.35962985E-01  4.42653446E-01  3.57064423E-01 -4.42115008E-05
 -1.22591041E-03 -1.05517725E-02 -6.74452633E-02 -1.71198607E-01  1.07329856E+00
  1.00000000E+00  1.00000000E+00  1.00000000E+00  4.11634896E-02  2.57762836E-01
  8.02419274E-01  1.00000000E+00  1.00000000E+00  1.00000000E+00  1.00000000E+00
  1.00000000E+00  1.00000000E+00  1.00000000E+00  1.00000000E+00  2.54948632E-02
  1.90362766E-01  8.52162022E-01  1.00000000E+00  1.00000000E+00  1.00000000E+00
  1.00000000E+00  1.00000000E+00  1.00000000E+00  1.00000000E+00  1.00000000E+00
  2.54948632E-02  1.90362766E-01  8.52162022E-01  1.00000000E+00  1.00000000E+00
  1.00000000E+00  1.00000000E+00  1.00000000E+00  1.00000000E+00  1.00000000E+00
  1.00000000E+00
Coordinates of each shell                  R   N=         138
  1.73470042E-31  1.66559835E-31 -1.00944347E+00  1.73470042E-31  1.66559835E-31
 -1.00944347E+00  1.73470042E-31  1.66559835E-31 -1.00944347E+00  1.73470042E-31
  1.66559835E-31 -1.00944347E+00  1.73470042E-31  1.66559835E-31 -1.00944347E+00
  1.73470042E-31  1.66559835E-31 -1.00944347E+00  1.73470042E-31  1.66559835E-31
 -1.00944347E+00  1.73470042E-31  1.66559835E-31 -1.00944347E+00  1.73470042E-31
  1.66559835E-31 -1.00944347E+00  1.73470042E-31  1.66559835E-31 -1.00944347E+00
  1.73470042E-31  1.66559835E-31 -1.00944347E+00  1.73470042E-31  1.66559835E-31
 -1.00944347E+00  1.73470042E-31  1.66559835E-31 -1.00944347E+00  1.73470042E-31
  1.66559835E-31 -1.00944347E+00 -7.20838023E-32 -1.73801930E-31  1.28259033E+00
 -7.20838023E-32 -1.73801930E-31  1.28259033E+00 -7.20838023E-32 -1.73801930E-31
  1.28259033E+00 -7.20838023E-32 -1.73801930E-31  1.28259033E+00 -7.20838023E-32
 -1.73801930E-31  1.28259033E+00 -7.20838023E-32 -1.73801930E-31  1.28259033E+00
 -7.20838023E-32 -1.73801930E-31  1.28259033E+00 -7.20838023E-32 -1.73801930E-31
  1.28259033E+00 -7.20838023E-32 -1.73801930E-31  1.28259033E+00 -7.20838023E-32
 -1.73801930E-31  1.28259033E+00 -7.20838023E-32 -1.73801930E-31  1.28259033E+00
 -7.20838023E-32 -1.73801930E-31  1.28259033E+00 -7.20838023E-32 -1.73801930E-31
  1.28259033E+00 -7.20838023E-32 -1.73801930E-31  1.28259033E+00 -4.73045421E-31
  1.76881018E+00 -2.10203091E+00 -4.73045421E-31  1.76881018E+00 -2.10203091E+00
 -4.73045421E-31  1.76881018E+00 -2.10203091E+00 -4.73045421E-31  1.76881018E+00
 -2.10203091E+00 -4.73045421E-31  1.76881018E+00 -2.10203091E+00 -4.73045421E-31
  1.76881018E+00 -2.10203091E+00 -4.73045421E-31  1.76881018E+00 -2.10203091E+00
 -4.73045421E-31  1.76881018E+00 -2.10203091E+00 -4.73045421E-31  1.76881018E+00
 -2.10203091E+00 -2.16616773E-16 -1.76881018E+00 -2.10203091E+00 -2.16616773E-16
 -1.76881018E+00 -2.10203091E+00 -2.16616773E-16 -1.76881018E+00 -2.10203091E+00
 -2.16616773E-16 -1.76881018E+00 -2.10203091E+00 -2.16616773E-16 -1.76881018E+00
 -2.10203091E+00 -2.16616773E-16 -1.76881018E+00 -2.10203091E+00 -2.16616773E-16
 -1.76881018E+00 -2.10203091E+00 -2.16616773E-16 -1.76881018E+00 -2.10203091E+00
 -2.16616773E-16 -1.76881018E+00 -2.10203091E+00
Num ILSW                                   I              100
ILSW                                       I   N=         100
           0           0           0           1           2           0
           0           0           0           0           0          -1
           5           0           0           0           2           0
           0           0           0           0           1           0
           1           0           0           0           0           0
           0           0      100000           0          -1           0
           0           0           0           0           0           0
           0           0           0           1           1           0
           0 -2000000000           1           0           0           0
           0           0           4          52           0           0
           0           0           0           0           0           0
           0           0           0           4           4           1
           0           0           0           0           0           0
           0           0           0           0           0           0
           0           0           0           0           0           0
           0           0           0           0           0           0
           0           0           0           0
Num RLSW                                   I               52
RLSW                                       R   N=          52
  1.00000000E+00  1.00000000E+00  1.00000000E+00  1.00000000E+00  1.00000000E+00
  0.00000000E+00  0.00000000E+00  1.00000000E+00  0.00000000E+00  0.00000000E+00
  0.00000000E+00  0.00000000E+00  1.00000000E+00  0.00000000E+00  0.00000000E+00
  0.00000000E+00  0.00000000E+00  1.00000000E+00  0.00000000E+00  0.00000000E+00
  0.00000000E+00  0.00000000E+00  1.00000000E+00  0.00000000E+00  0.00000000E+00
  0.00000000E+00  0.00000000E+00  1.00000000E+00  0.00000000E+00  0.00000000E+00
  0.00000000E+00  0.00000000E+00  1.00000000E+00  0.00000000E+00  0.00000000E+00
  0.00000000E+00  0.00000000E+00  0.00000000E+00  1.00000000E+00  1.00000000E+00
  0.00000000E+00  1.00000000E+00  0.00000000E+00  0.00000000E+00  0.00000000E+00
  0.00000000E+00  0.00000000E+00  0.00000000E+00  0.00000000E+00  0.00000000E+00
  0.00000000E+00  0.00000000E+00
MxBond                                     I                3
NBond                                      I   N=           4
           3           1           1           1
IBond                                      I   N=          12
           2           3           4           1           0           0
           1           0           0           1           0           0
RBond                                      R   N=          12
  3.00000000E+00  1.00000000E+00  1.00000000E+00  3.00000000E+00  0.00000000E+00
  0.00000000E+00  1.00000000E+00  0.00000000E+00  0.00000000E+00  1.00000000E+00
  0.00000000E+00  0.00000000E+00
Virial Ratio                               R      2.002048597036173E+00
SCF Energy                                 R     -1.139131447649436E+02
MP2 Energy                                 R     -1.143164101248848E+02
Total Energy                               R     -1.143164101248848E+02
Post-SCF wavefunction norm                 R      1.492161871316952E+00
RMS Force                                  R      1.207327692108178E-07
RMS Density                                R      2.211099382696707E-09
NImag                                      I                0
Job Status                                 I                1
Nuclear derivative order                   I                3
External E-field                           R   N=          35
  0.00000000E+00  0.00000000E+00  0.00000000E+00  0.00000000E+00  0.00000000E+00
  0.00000000E+00  0.00000000E+00  0.00000000E+00  0.00000000E+00  0.00000000E+00
  0.00000000E+00  0.00000000E+00  0.00000000E+00  0.00000000E+00  0.00000000E+00
  0.00000000E+00  0.00000000E+00  0.00000000E+00  0.00000000E+00  0.00000000E+00
  0.00000000E+00  0.00000000E+00  0.00000000E+00  0.00000000E+00  0.00000000E+00
  0.00000000E+00  0.00000000E+00  0.00000000E+00  0.00000000E+00  0.00000000E+00
  0.00000000E+00  0.00000000E+00  0.00000000E+00  0.00000000E+00  0.00000000E+00
IOpCl                                      I                0
IROHF                                      I                0
Alpha Orbital Energies                     R   N=         138
 -2.05792801E+01 -1.13435206E+01 -1.40228773E+00 -8.72986651E-01 -6.94442903E-01
 -6.50635908E-01 -5.34303360E-01 -4.44849908E-01  2.61387821E-02  4.15844971E-02
  6.19829983E-02  7.64952272E-02  1.28015750E-01  1.32807609E-01  1.33555527E-01
  1.74408571E-01  1.97926236E-01  2.11933243E-01  2.17032500E-01  2.53854008E-01
  2.55936276E-01  2.81142152E-01  3.20104054E-01  3.37965934E-01  3.39270347E-01
  3.58952933E-01  3.87720806E-01  3.89961867E-01  3.95929909E-01  4.18378066E-01
  4.81879536E-01  4.98077324E-01  5.62269539E-01  5.66590055E-01  6.69110711E-01
  6.77162086E-01  7.20071141E-01  7.64048934E-01  8.19111241E-01  8.34532762E-01
  8.42210343E-01  8.56742364E-01  8.75544072E-01  8.81540305E-01  9.27759040E-01
  9.33877861E-01  9.39693760E-01  9.78533617E-01  1.00054178E+00  1.02066407E+00
  1.02346577E+00  1.03594993E+00  1.06843664E+00  1.08214711E+00  1.09822258E+00
  1.10129086E+00  1.25905926E+00  1.26307845E+00  1.30505026E+00  1.36887148E+00
  1.38951547E+00  1.45697509E+00  1.47670553E+00  1.51249897E+00  1.57178802E+00
  1.59677017E+00  1.62651767E+00  1.70701952E+00  1.72842721E+00  1.83228917E+00
  1.96097460E+00  2.00596308E+00  2.03318960E+00  2.09837329E+00  2.17897732E+00
  2.28534388E+00  2.32032069E+00  2.33901739E+00  2.34372459E+00  2.48842222E+00
  2.49677281E+00  2.55987179E+00  2.60121756E+00  2.71441488E+00  2.78011746E+00
  2.80792404E+00  2.91563673E+00  2.92872872E+00  3.06689831E+00  3.07942883E+00
  3.14366929E+00  3.18660998E+00  3.41063974E+00  3.43986023E+00  3.52858161E+00
  3.56334216E+00  3.62554367E+00  3.65909287E+00  3.70112967E+00  3.89503313E+00
  3.95523249E+00  4.05067155E+00  4.11553054E+00  4.15398523E+00  4.16257387E+00
  4.21749358E+00  4.24233627E+00  4.36249858E+00  4.57664098E+00  4.64738452E+00
  4.68856383E+00  4.76475149E+00  5.02847944E+00  5.04276847E+00  5.10366800E+00
  5.14823208E+00  5.25024634E+00  5.28541100E+00  5.32927655E+00  5.38798231E+00
  5.89611655E+00  6.13334108E+00  6.23362127E+00  6.49934568E+00  6.59797890E+00
  6.61707428E+00  6.91250044E+00  6.94331989E+00  7.08203888E+00  7.18884971E+00
  7.20393775E+00  7.40647423E+00  7.52464888E+00  7.67894219E+00  7.71997922E+00
  7.76524679E+00  1.48212245E+01  1.63983535E+01
Alpha MO coefficients                      R   N=       19044
  6.60162770E-05  9.22895732E-04  9.38549169E-06  1.20036029E-03  2.81057501E-04
  0.00000000E+00  0.00000000E+00  2.06768010E-04  0.00000000E+00  0.00000000E+00
  3.00892658E-03  0.00000000E+00  0.00000000E+00  2.38541781E-04  0.00000000E+00
  0.00000000E+00  7.25450376E-05  4.54599661E-04  0.00000000E+00  0.00000000E+00
  5.68006062E-05  0.00000000E+00  1.48084414E-03  0.00000000E+00  0.00000000E+00
  4.25510195E-04  0.00000000E+00 -1.05697763E-03  0.00000000E+00  0.00000000E+00
 -5.62515795E-04  0.00000000E+00  5.28544369E-05  0.00000000E+00  0.00000000E+00
 -9.08849110E-05  0.00000000E+00  0.00000000E+00  0.00000000E+00  7.00836376E-04
  0.00000000E+00  0.00000000E+00  1.74494885E-04  0.00000000E+00  0.00000000E+00
  0.00000000E+00  9.76636847E-01 -9.78706503E-03  4.35690286E-02  1.56774262E-03
 -9.56029636E-05  0.00000000E+00  0.00000000E+00 -1.92176985E-03  0.00000000E+00
  0.00000000E+00  2.25425137E-03  0.00000000E+00  0.00000000E+00  4.89610266E-04
  0.00000000E+00  0.00000000E+00  3.97224623E-05  1.84771720E-04  0.00000000E+00
  0.00000000E+00 -1.24229656E-04  0.00000000E+00 -7.77576013E-04  0.00000000E+00
  0.00000000E+00 -1.72942217E-04  0.00000000E+00 -6.29767403E-05  0.00000000E+00
  0.00000000E+00 -4.17284325E-06  0.00000000E+00  4.30281941E-05  0.00000000E+00
  0.00000000E+00 -2.86703564E-05  0.00000000E+00  0.00000000E+00  0.00000000E+00
  1.80968455E-04  0.00000000E+00  0.00000000E+00  4.82140057E-05  0.00000000E+00
  0.00000000E+00  0.00000000E+00  1.87537147E-05  5.12905337E-04 -6.94711756E-04
 -1.66383598E-05  0.00000000E+00 -4.28324265E-05  3.18258523E-05  0.00000000E+00
 -3.48883636E-04  3.13253566E-04  0.00000000E+00 -3.70457926E-04 -6.28485085E-04
 -3.24317598E-05  0.00000000E+00 -2.87370592E-05 -2.23597152E-05  0.00000000E+00
  9.90367157E-05  0.00000000E+00  5.04841202E-05 -1.21318117E-04  0.00000000E+00
  1.87537147E-05  5.12905337E-04 -6.94711756E-04 -1.66383598E-05  0.00000000E+00
  4.28324265E-05  3.18258523E-05  0.00000000E+00  3.48883636E-04  3.13253566E-04
  0.00000000E+00  3.70457926E-04 -6.28485085E-04 -3.24317598E-05  0.00000000E+00
  2.87370592E-05 -2.23597152E-05  0.00000000E+00  9.90367157E-05  0.00000000E+00
 -5.04841202E-05 -1.21318117E-04  0.00000000E+00  9.79028884E-01 -6.06762647E-03
  4.14839146E-02  9.78712439E-03  2.54735353E-03  0.00000000E+00  0.00000000E+00
  2.19683458E-04  0.00000000E+00  0.00000000E+00  1.46579623E-03  0.00000000E+00
  0.00000000E+00 -1.68638646E-03  0.00000000E+00  0.00000000E+00 -1.26773276E-04
  8.02201209E-04  0.00000000E+00  0.00000000E+00 -6.42153241E-04  0.00000000E+00
  1.06811145E-04  0.00000000E+00  0.00000000E+00  1.98814397E-04  0.00000000E+00
 -1.02485333E-03  0.00000000E+00  0.00000000E+00 -9.01261880E-04  0.00000000E+00
  9.03990607E-04  0.00000000E+00  0.00000000E+00  6.10276402E-04  0.00000000E+00
  0.00000000E+00  0.00000000E+00 -1.18210986E-03  0.00000000E+00  0.00000000E+00
 -7.53647812E-04  0.00000000E+00  0.00000000E+00  0.00000000E+00 -3.17431066E-04
  6.25595812E-04  2.76834718E-04 -8.41807553E-04 -6.61885635E-04  0.00000000E+00
  0.00000000E+00 -4.25343399E-04  0.00000000E+00  0.00000000E+00  3.60589782E-04
  0.00000000E+00  0.00000000E+00  1.96308101E-03  0.00000000E+00  0.00000000E+00
  1.82126121E-04  3.84364933E-05  0.00000000E+00  0.00000000E+00  1.72831581E-05
  0.00000000E+00 -7.21570568E-04  0.00000000E+00  0.00000000E+00  1.06150409E-05
  0.00000000E+00 -6.77227116E-04  0.00000000E+00  0.00000000E+00  3.17606317E-04
  0.00000000E+00 -5.81585674E-05  0.00000000E+00  0.00000000E+00  2.37754410E-05
  0.00000000E+00  0.00000000E+00  0.00000000E+00  4.40281639E-04  0.00000000E+00
  0.00000000E+00 -8.59702335E-06  0.00000000E+00  0.00000000E+00  0.00000000E+00
  2.33353937E-04  7.09483692E-04 -4.96337507E-03 -3.49770893E-04  0.00000000E+00
  2.52702111E-04 -1.87658990E-04  0.00000000E+00  3.84052400E-04 -9.09191127E-05
  0.00000000E+00  6.47585749E-04 -1.23232871E-03  6.07482122E-05  0.00000000E+00
  2.87437531E-04  1.74909073E-04  0.00000000E+00 -2.28678143E-04  0.00000000E+00
 -5.81857352E-05  2.31308334E-04  0.00000000E+00  2.33353937E-04  7.09483692E-04
 -4.96337507E-03 -3.49770893E-04  0.00000000E+00 -2.52702111E-04 -1.87658990E-04
  0.00000000E+00 -3.84052400E-04 -9.09191127E-05  0.00000000E+00 -6.47585749E-04
 -1.23232871E-03  6.07482122E-05  0.00000000E+00 -2.87437531E-04  1.74909073E-04
  0.00000000E+00 -2.28678143E-04  0.00000000E+00  5.81857352E-05  2.31308334E-04
  0.00000000E+00 -1.02519098E-01  2.38553237E-01  5.20244410E-02  1.28862764E-01
  7.91861074E-03  0.00000000E+00  0.00000000E+00  9.89410530E-02  0.00000000E+00
  0.00000000E+00  7.09699453E-02  0.00000000E+00  0.00000000E+00 -2.21088902E-02
  0.00000000E+00  0.00000000E+00 -1.71084746E-03  1.85268332E-02  0.00000000E+00
  0.00000000E+00 -2.31764446E-03  0.00000000E+00  9.60203103E-03  0.00000000E+00
  0.00000000E+00 -1.47913984E-02  0.00000000E+00 -1.63528440E-02  0.00000000E+00
  0.00000000E+00 -7.89859002E-03  0.00000000E+00  8.10430524E-03  0.00000000E+00
  0.00000000E+00  4.55659756E-03  0.00000000E+00  0.00000000E+00  0.00000000E+00
 -5.32120030E-04  0.00000000E+00  0.00000000E+00  2.83086051E-03  0.00000000E+00
  0.00000000E+00  0.00000000E+00 -1.88159155E-01  4.52586709E-01  1.21777898E-01
  2.55175081E-01  2.21344010E-02  0.00000000E+00  0.00000000E+00 -7.49497651E-02
  0.00000000E+00  0.00000000E+00 -1.00635441E-01  0.00000000E+00  0.00000000E+00
 -1.75348078E-02  0.00000000E+00  0.00000000E+00  3.75909155E-04  7.62546413E-03
  0.00000000E+00  0.00000000E+00 -2.91982800E-04  0.00000000E+00  2.09475530E-02
  0.00000000E+00  0.00000000E+00  1.90847423E-04  0.00000000E+00 -5.10050378E-03
  0.00000000E+00  0.00000000E+00  2.01782979E-04  0.00000000E+00 -4.09755730E-03
  0.00000000E+00  0.00000000E+00 -2.33342922E-04  0.00000000E+00  0.00000000E+00
  0.00000000E+00 -3.31033441E-03  0.00000000E+00  0.00000000E+00 -1.04066545E-03
  0.00000000E+00  0.00000000E+00  0.00000000E+00  1.51621402E-02 -1.88357649E-02
 -4.99521426E-02 -1.97844538E-03  0.00000000E+00 -1.29359881E-05  9.13682339E-04
  0.00000000E+00  1.25974310E-02 -9.30071142E-03  0.00000000E+00  7.42776433E-03
 -1.73500793E-02  8.29161089E-04  0.00000000E+00  8.68541564E-04  8.94567161E-04
  0.00000000E+00 -2.49125073E-03  0.00000000E+00  3.77241677E-03  2.23580582E-03
  0.00000000E+00  1.51621402E-02 -1.88357649E-02 -4.99521426E-02 -1.97844538E-03
  0.00000000E+00  1.29359881E-05  9.13682339E-04  0.00000000E+00 -1.25974310E-02
 -9.30071142E-03  0.00000000E+00 -7.42776433E-03 -1.73500793E-02  8.29161089E-04
  0.00000000E+00 -8.68541564E-04  8.94567161E-04  0.00000000E+00 -2.49125073E-03
  0.00000000E+00 -3.77241677E-03  2.23580582E-03  0.00000000E+00 -1.51203482E-01
  3.89437982E-01  8.79208526E-02  3.11907033E-01  1.44193523E-02  0.00000000E+00
  0.00000000E+00 -9.74052566E-02  0.00000000E+00  0.00000000E+00 -1.22628511E-01
  0.00000000E+00  0.00000000E+00 -7.08417327E-02  0.00000000E+00  0.00000000E+00
 -7.12922404E-04 -1.85047058E-03  0.00000000E+00  0.00000000E+00 -1.14619798E-02
  0.00000000E+00 -2.80903797E-03  0.00000000E+00  0.00000000E+00 -2.74968512E-02
  0.00000000E+00  4.67049682E-03  0.00000000E+00  0.00000000E+00 -2.94998357E-03
  0.00000000E+00  4.13373533E-03  0.00000000E+00  0.00000000E+00  4.45929857E-03
  0.00000000E+00  0.00000000E+00  0.00000000E+00  5.81602764E-03  0.00000000E+00
  0.00000000E+00  8.78559522E-03  0.00000000E+00  0.00000000E+00  0.00000000E+00
  8.26029839E-02 -2.12548411E-01 -6.13904808E-02 -2.10822104E-01 -1.61889860E-02
  0.00000000E+00  0.00000000E+00 -8.32946800E-02  0.00000000E+00  0.00000000E+00
 -9.76429846E-02  0.00000000E+00  0.00000000E+00 -4.10863870E-02  0.00000000E+00
  0.00000000E+00 -1.50104142E-03  2.94871326E-03  0.00000000E+00  0.00000000E+00
  2.85144866E-04  0.00000000E+00  3.81962805E-03  0.00000000E+00  0.00000000E+00
  1.09581278E-03  0.00000000E+00 -8.84146002E-05  0.00000000E+00  0.00000000E+00
  9.55321748E-04  0.00000000E+00 -8.60926264E-04  0.00000000E+00  0.00000000E+00
 -2.03208936E-04  0.00000000E+00  0.00000000E+00  0.00000000E+00  7.49648155E-04
  0.00000000E+00  0.00000000E+00 -5.16961057E-04  0.00000000E+00  0.00000000E+00
  0.00000000E+00  1.05797449E-01  1.06357221E-01 -3.01442783E-02 -1.82429515E-03
  0.00000000E+00 -9.84255261E-03  4.47186527E-03  0.00000000E+00 -3.92904133E-03
 -2.71528535E-03  0.00000000E+00  1.73451884E-02 -5.50700731E-03 -6.55211026E-04
  0.00000000E+00 -1.36392090E-03 -1.72703574E-03  0.00000000E+00 -4.45739505E-04
  0.00000000E+00  1.78810260E-03  9.70463754E-04  0.00000000E+00  1.05797449E-01
  1.06357221E-01 -3.01442783E-02 -1.82429515E-03  0.00000000E+00  9.84255261E-03
  4.47186527E-03  0.00000000E+00  3.92904133E-03 -2.71528535E-03  0.00000000E+00
 -1.73451884E-02 -5.50700731E-03 -6.55211026E-04  0.00000000E+00  1.36392090E-03
 -1.72703574E-03  0.00000000E+00 -4.45739505E-04  0.00000000E+00 -1.78810260E-03
  9.70463754E-04  0.00000000E+00  0.00000000E+00  0.00000000E+00  0.00000000E+00
  0.00000000E+00  0.00000000E+00  0.00000000E+00  2.21429226E-01  0.00000000E+00
  0.00000000E+00  3.00036975E-01  0.00000000E+00  0.00000000E+00  1.30016771E-01
  0.00000000E+00  0.00000000E+00 -7.75252238E-03  0.00000000E+00  0.00000000E+00
  0.00000000E+00 -3.53079492E-03  0.00000000E+00  0.00000000E+00  0.00000000E+00
  0.00000000E+00 -3.93533518E-02  0.00000000E+00  0.00000000E+00  0.00000000E+00
  0.00000000E+00 -4.27405330E-02  0.00000000E+00  0.00000000E+00  0.00000000E+00
  0.00000000E+00  7.41911317E-03  0.00000000E+00  0.00000000E+00  0.00000000E+00
 -1.38785154E-03  0.00000000E+00  0.00000000E+00  7.19992390E-03  0.00000000E+00
  0.00000000E+00  0.00000000E+00 -1.03767798E-03  0.00000000E+00  0.00000000E+00
  0.00000000E+00  0.00000000E+00  0.00000000E+00  0.00000000E+00  1.87397982E-01
  0.00000000E+00  0.00000000E+00  2.36403845E-01  0.00000000E+00  0.00000000E+00
  1.61940226E-01  0.00000000E+00  0.00000000E+00  2.20035229E-02  0.00000000E+00
  0.00000000E+00  0.00000000E+00 -7.32926585E-03  0.00000000E+00  0.00000000E+00
  0.00000000E+00  0.00000000E+00 -1.93600464E-02  0.00000000E+00  0.00000000E+00
  0.00000000E+00  0.00000000E+00 -1.10735976E-02  0.00000000E+00  0.00000000E+00
  0.00000000E+00  0.00000000E+00  4.48467684E-03  0.00000000E+00  0.00000000E+00
  0.00000000E+00  7.51752008E-04  0.00000000E+00  0.00000000E+00  2.53472022E-03
  0.00000000E+00  0.00000000E+00  0.00000000E+00  1.27727778E-03  1.09664869E-01
  1.15628782E-01 -3.36782661E-02  5.05161807E-03  0.00000000E+00 -7.57625028E-03
  7.55826015E-03  0.00000000E+00  1.27451416E-02  3.89733656E-03  0.00000000E+00
  1.73369808E-02  2.22588233E-03  1.57662013E-03  0.00000000E+00 -3.00692316E-03